+ 5 0 1 tcp 1250 ------- 1 0.0 1.0 0 7075
+ 5.0009 0 1 tcp 1250 ------- 1 0.0 1.0 1 7076
+ 5.0018 0 1 tcp 1250 ------- 1 0.0 1.0 2 7078
+ 5.0027 0 1 tcp 1250 ------- 1 0.0 1.0 3 7080
+ 5.0036 0 1 tcp 1250 ------- 1 0.0 1.0 4 7082
+ 5.0045 0 1 tcp 1250 ------- 1 0.0 1.0 5 7084
+ 5.0054 0 1 tcp 1250 ------- 1 0.0 1.0 6 7086
+ 5.0063 0 1 tcp 1250 ------- 1 0.0 1.0 7 7088
+ 5.0072 0 1 tcp 1250 ------- 1 0.0 1.0 8 7090
+ 5.0081 0 1 tcp 1250 ------- 1 0.0 1.0 9 7092
+ 5.009 0 1 tcp 1250 ------- 1 0.0 1.0 10 7094
+ 5.0099 0 1 tcp 1250 ------- 1 0.0 1.0 11 7095
+ 5.0108 0 1 tcp 1250 ------- 1 0.0 1.0 12 7097
+ 5.0117 0 1 tcp 1250 ------- 1 0.0 1.0 13 7099
+ 5.0126 0 1 tcp 1250 ------- 1 0.0 1.0 14 7101
+ 5.0135 0 1 tcp 1250 ------- 1 0.0 1.0 15 7103
+ 5.0144 0 1 tcp 1250 ------- 1 0.0 1.0 16 7105
+ 5.0153 0 1 tcp 1250 ------- 1 0.0 1.0 17 7107
+ 5.0162 0 1 tcp 1250 ------- 1 0.0 1.0 18 7109
+ 5.0171 0 1 tcp 1250 ------- 1 0.0 1.0 19 7111
+ 5.018 0 1 tcp 1250 ------- 1 0.0 1.0 20 7113
+ 5.0189 0 1 tcp 1250 ------- 1 0.0 1.0 21 7114
+ 5.0198 0 1 tcp 1250 ------- 1 0.0 1.0 22 7116
+ 5.0207 0 1 tcp 1250 ------- 1 0.0 1.0 23 7118
+ 5.0216 0 1 tcp 1250 ------- 1 0.0 1.0 24 7120
+ 5.0225 0 1 tcp 1250 ------- 1 0.0 1.0 25 7122
+ 5.0234 0 1 tcp 1250 ------- 1 0.0 1.0 26 7124
+ 5.0243 0 1 tcp 1250 ------- 1 0.0 1.0 27 7126
+ 5.0252 0 1 tcp 1250 ------- 1 0.0 1.0 28 7128
+ 5.0261 0 1 tcp 1250 ------- 1 0.0 1.0 29 7130
+ 5.027 0 1 tcp 1250 ------- 1 0.0 1.0 30 7132
+ 5.0279 0 1 tcp 1250 ------- 1 0.0 1.0 31 7133
+ 5.0288 0 1 tcp 1250 ------- 1 0.0 1.0 32 7135
+ 5.0297 0 1 tcp 1250 ------- 1 0.0 1.0 33 7137
+ 5.0306 0 1 tcp 1250 ------- 1 0.0 1.0 34 7139
+ 5.0315 0 1 tcp 1250 ------- 1 0.0 1.0 35 7141
+ 5.0324 0 1 tcp 1250 ------- 1 0.0 1.0 36 7143
+ 5.0333 0 1 tcp 1250 ------- 1 0.0 1.0 37 7145
+ 5.0342 0 1 tcp 1250 ------- 1 0.0 1.0 38 7147
+ 5.0351 0 1 tcp 1250 ------- 1 0.0 1.0 39 7149
+ 5.036 0 1 tcp 1250 ------- 1 0.0 1.0 40 7151
+ 5.0369 0 1 tcp 1250 ------- 1 0.0 1.0 41 7152
+ 5.0378 0 1 tcp 1250 ------- 1 0.0 1.0 42 7154
+ 5.0387 0 1 tcp 1250 ------- 1 0.0 1.0 43 7156
+ 5.0396 0 1 tcp 1250 ------- 1 0.0 1.0 44 7158
+ 5.0405 0 1 tcp 1250 ------- 1 0.0 1.0 45 7160
+ 5.0414 0 1 tcp 1250 ------- 1 0.0 1.0 46 7162
+ 5.0423 0 1 tcp 1250 ------- 1 0.0 1.0 47 7164
+ 5.0432 0 1 tcp 1250 ------- 1 0.0 1.0 48 7166
+ 5.0441 0 1 tcp 1250 ------- 1 0.0 1.0 49 7168
+ 5.045 0 1 tcp 1250 ------- 1 0.0 1.0 50 7170
+ 5.0459 0 1 tcp 1250 ------- 1 0.0 1.0 51 7171
+ 5.0468 0 1 tcp 1250 ------- 1 0.0 1.0 52 7173
+ 5.0477 0 1 tcp 1250 ------- 1 0.0 1.0 53 7175
+ 5.0486 0 1 tcp 1250 ------- 1 0.0 1.0 54 7177
+ 5.0495 0 1 tcp 1250 ------- 1 0.0 1.0 55 7179
+ 5.0504 0 1 tcp 1250 ------- 1 0.0 1.0 56 7181
+ 5.0513 0 1 tcp 1250 ------- 1 0.0 1.0 57 7183
+ 5.0522 0 1 tcp 1250 ------- 1 0.0 1.0 58 7185
+ 5.0531 0 1 tcp 1250 ------- 1 0.0 1.0 59 7187
+ 5.054 0 1 tcp 1250 ------- 1 0.0 1.0 60 7189
+ 5.0549 0 1 tcp 1250 ------- 1 0.0 1.0 61 7190
+ 5.0558 0 1 tcp 1250 ------- 1 0.0 1.0 62 7192
+ 5.0567 0 1 tcp 1250 ------- 1 0.0 1.0 63 7194
+ 5.0576 0 1 tcp 1250 ------- 1 0.0 1.0 64 7196
+ 5.0585 0 1 tcp 1250 ------- 1 0.0 1.0 65 7198
+ 5.0594 0 1 tcp 1250 ------- 1 0.0 1.0 66 7200
+ 5.0603 0 1 tcp 1250 ------- 1 0.0 1.0 67 7202
+ 5.0612 0 1 tcp 1250 ------- 1 0.0 1.0 68 7204
+ 5.0621 0 1 tcp 1250 ------- 1 0.0 1.0 69 7206
+ 5.063 0 1 tcp 1250 ------- 1 0.0 1.0 70 7208
+ 5.0639 0 1 tcp 1250 ------- 1 0.0 1.0 71 7209
+ 5.0648 0 1 tcp 1250 ------- 1 0.0 1.0 72 7211
+ 5.0657 0 1 tcp 1250 ------- 1 0.0 1.0 73 7213
+ 5.0666 0 1 tcp 1250 ------- 1 0.0 1.0 74 7215
+ 5.0675 0 1 tcp 1250 ------- 1 0.0 1.0 75 7217
+ 5.0684 0 1 tcp 1250 ------- 1 0.0 1.0 76 7219
+ 5.0693 0 1 tcp 1250 ------- 1 0.0 1.0 77 7221
+ 5.0702 0 1 tcp 1250 ------- 1 0.0 1.0 78 7223
+ 5.0711 0 1 tcp 1250 ------- 1 0.0 1.0 79 7225
+ 5.072 0 1 tcp 1250 ------- 1 0.0 1.0 80 7227
+ 5.0729 0 1 tcp 1250 ------- 1 0.0 1.0 81 7228
+ 5.0738 0 1 tcp 1250 ------- 1 0.0 1.0 82 7230
+ 5.0747 0 1 tcp 1250 ------- 1 0.0 1.0 83 7232
+ 5.0756 0 1 tcp 1250 ------- 1 0.0 1.0 84 7234
+ 5.0765 0 1 tcp 1250 ------- 1 0.0 1.0 85 7236
+ 5.0774 0 1 tcp 1250 ------- 1 0.0 1.0 86 7238
+ 5.0783 0 1 tcp 1250 ------- 1 0.0 1.0 87 7240
+ 5.0792 0 1 tcp 1250 ------- 1 0.0 1.0 88 7242
+ 5.0801 0 1 tcp 1250 ------- 1 0.0 1.0 89 7244
+ 5.081 0 1 tcp 1250 ------- 1 0.0 1.0 90 7246
+ 5.0819 0 1 tcp 1250 ------- 1 0.0 1.0 91 7247
+ 5.0828 0 1 tcp 1250 ------- 1 0.0 1.0 92 7249
+ 5.0837 0 1 tcp 1250 ------- 1 0.0 1.0 93 7251
+ 5.0846 0 1 tcp 1250 ------- 1 0.0 1.0 94 7253
+ 5.0855 0 1 tcp 1250 ------- 1 0.0 1.0 95 7255
+ 5.0864 0 1 tcp 1250 ------- 1 0.0 1.0 96 7257
+ 5.0873 0 1 tcp 1250 ------- 1 0.0 1.0 97 7259
+ 5.0882 0 1 tcp 1250 ------- 1 0.0 1.0 98 7261
+ 5.0891 0 1 tcp 1250 ------- 1 0.0 1.0 99 7263
+ 5.09 0 1 tcp 1250 ------- 1 0.0 1.0 100 7265
+ 5.0909 0 1 tcp 1250 ------- 1 0.0 1.0 101 7266
+ 5.0918 0 1 tcp 1250 ------- 1 0.0 1.0 102 7268
+ 5.0927 0 1 tcp 1250 ------- 1 0.0 1.0 103 7270
+ 5.0936 0 1 tcp 1250 ------- 1 0.0 1.0 104 7272
+ 5.0945 0 1 tcp 1250 ------- 1 0.0 1.0 105 7274
+ 5.162941 0 1 tcp 1250 ------- 1 0.0 1.0 106 7344
+ 5.163841 0 1 tcp 1250 ------- 1 0.0 1.0 107 7345
+ 5.164741 0 1 tcp 1250 ------- 1 0.0 1.0 108 7347
+ 5.165641 0 1 tcp 1250 ------- 1 0.0 1.0 109 7349
+ 5.166541 0 1 tcp 1250 ------- 1 0.0 1.0 110 7351
+ 5.167441 0 1 tcp 1250 ------- 1 0.0 1.0 111 7353
+ 5.168341 0 1 tcp 1250 ------- 1 0.0 1.0 112 7355
+ 5.169241 0 1 tcp 1250 ------- 1 0.0 1.0 113 7357
+ 5.170141 0 1 tcp 1250 ------- 1 0.0 1.0 114 7359
+ 5.171041 0 1 tcp 1250 ------- 1 0.0 1.0 115 7361
+ 5.171941 0 1 tcp 1250 ------- 1 0.0 1.0 116 7363
+ 5.172841 0 1 tcp 1250 ------- 1 0.0 1.0 117 7364
+ 5.173741 0 1 tcp 1250 ------- 1 0.0 1.0 118 7366
+ 5.174641 0 1 tcp 1250 ------- 1 0.0 1.0 119 7368
+ 5.175541 0 1 tcp 1250 ------- 1 0.0 1.0 120 7370
+ 5.176441 0 1 tcp 1250 ------- 1 0.0 1.0 121 7372
+ 5.177341 0 1 tcp 1250 ------- 1 0.0 1.0 122 7374
+ 5.178241 0 1 tcp 1250 ------- 1 0.0 1.0 123 7376
+ 5.179141 0 1 tcp 1250 ------- 1 0.0 1.0 124 7378
+ 5.180041 0 1 tcp 1250 ------- 1 0.0 1.0 125 7380
+ 5.180941 0 1 tcp 1250 ------- 1 0.0 1.0 126 7382
+ 5.181841 0 1 tcp 1250 ------- 1 0.0 1.0 127 7383
+ 5.182741 0 1 tcp 1250 ------- 1 0.0 1.0 128 7385
+ 5.183641 0 1 tcp 1250 ------- 1 0.0 1.0 129 7387
+ 5.184541 0 1 tcp 1250 ------- 1 0.0 1.0 130 7389
+ 5.185441 0 1 tcp 1250 ------- 1 0.0 1.0 131 7391
+ 5.186341 0 1 tcp 1250 ------- 1 0.0 1.0 132 7393
+ 5.187241 0 1 tcp 1250 ------- 1 0.0 1.0 133 7395
+ 5.188141 0 1 tcp 1250 ------- 1 0.0 1.0 134 7397
+ 5.189041 0 1 tcp 1250 ------- 1 0.0 1.0 135 7399
+ 5.189941 0 1 tcp 1250 ------- 1 0.0 1.0 136 7401
+ 5.190841 0 1 tcp 1250 ------- 1 0.0 1.0 137 7402
+ 5.191741 0 1 tcp 1250 ------- 1 0.0 1.0 138 7404
+ 5.192641 0 1 tcp 1250 ------- 1 0.0 1.0 139 7406
+ 5.193541 0 1 tcp 1250 ------- 1 0.0 1.0 140 7408
+ 5.194441 0 1 tcp 1250 ------- 1 0.0 1.0 141 7410
+ 5.195341 0 1 tcp 1250 ------- 1 0.0 1.0 142 7412
+ 5.196241 0 1 tcp 1250 ------- 1 0.0 1.0 143 7414
+ 5.197141 0 1 tcp 1250 ------- 1 0.0 1.0 144 7416
+ 5.198041 0 1 tcp 1250 ------- 1 0.0 1.0 145 7418
+ 5.198941 0 1 tcp 1250 ------- 1 0.0 1.0 146 7420
+ 5.199841 0 1 tcp 1250 ------- 1 0.0 1.0 147 7421
+ 5.200741 0 1 tcp 1250 ------- 1 0.0 1.0 148 7423
+ 5.201641 0 1 tcp 1250 ------- 1 0.0 1.0 149 7425
+ 5.202541 0 1 tcp 1250 ------- 1 0.0 1.0 150 7427
+ 5.203441 0 1 tcp 1250 ------- 1 0.0 1.0 151 7429
+ 5.204341 0 1 tcp 1250 ------- 1 0.0 1.0 152 7431
+ 5.205241 0 1 tcp 1250 ------- 1 0.0 1.0 153 7433
+ 5.206141 0 1 tcp 1250 ------- 1 0.0 1.0 154 7435
+ 5.207041 0 1 tcp 1250 ------- 1 0.0 1.0 155 7437
+ 5.207941 0 1 tcp 1250 ------- 1 0.0 1.0 156 7439
+ 5.208941 0 1 tcp 1250 ------- 1 0.0 1.0 157 7441
+ 5.209941 0 1 tcp 1250 ------- 1 0.0 1.0 158 7443
+ 5.210941 0 1 tcp 1250 ------- 1 0.0 1.0 159 7445
+ 5.211941 0 1 tcp 1250 ------- 1 0.0 1.0 160 7447
+ 5.212941 0 1 tcp 1250 ------- 1 0.0 1.0 161 7449
+ 5.213941 0 1 tcp 1250 ------- 1 0.0 1.0 162 7451
+ 5.214941 0 1 tcp 1250 ------- 1 0.0 1.0 163 7453
+ 5.215941 0 1 tcp 1250 ------- 1 0.0 1.0 164 7455
+ 5.216941 0 1 tcp 1250 ------- 1 0.0 1.0 165 7457
+ 5.217941 0 1 tcp 1250 ------- 1 0.0 1.0 166 7459
+ 5.218941 0 1 tcp 1250 ------- 1 0.0 1.0 167 7461
+ 5.219941 0 1 tcp 1250 ------- 1 0.0 1.0 168 7463
+ 5.220941 0 1 tcp 1250 ------- 1 0.0 1.0 169 7465
+ 5.221941 0 1 tcp 1250 ------- 1 0.0 1.0 170 7467
+ 5.222941 0 1 tcp 1250 ------- 1 0.0 1.0 171 7469
+ 5.223941 0 1 tcp 1250 ------- 1 0.0 1.0 172 7471
+ 5.224941 0 1 tcp 1250 ------- 1 0.0 1.0 173 7473
+ 5.225941 0 1 tcp 1250 ------- 1 0.0 1.0 174 7475
+ 5.226941 0 1 tcp 1250 ------- 1 0.0 1.0 175 7477
+ 5.227941 0 1 tcp 1250 ------- 1 0.0 1.0 176 7479
+ 5.228941 0 1 tcp 1250 ------- 1 0.0 1.0 177 7481
+ 5.229941 0 1 tcp 1250 ------- 1 0.0 1.0 178 7483
+ 5.230941 0 1 tcp 1250 ------- 1 0.0 1.0 179 7485
+ 5.231941 0 1 tcp 1250 ------- 1 0.0 1.0 180 7487
+ 5.232941 0 1 tcp 1250 ------- 1 0.0 1.0 181 7489
+ 5.233941 0 1 tcp 1250 ------- 1 0.0 1.0 182 7491
+ 5.234941 0 1 tcp 1250 ------- 1 0.0 1.0 183 7493
+ 5.235941 0 1 tcp 1250 ------- 1 0.0 1.0 184 7495
+ 5.236941 0 1 tcp 1250 ------- 1 0.0 1.0 185 7497
+ 5.237941 0 1 tcp 1250 ------- 1 0.0 1.0 186 7499
+ 5.238941 0 1 tcp 1250 ------- 1 0.0 1.0 187 7501
+ 5.239941 0 1 tcp 1250 ------- 1 0.0 1.0 188 7503
+ 5.240941 0 1 tcp 1250 ------- 1 0.0 1.0 189 7505
+ 5.241941 0 1 tcp 1250 ------- 1 0.0 1.0 190 7507
+ 5.242941 0 1 tcp 1250 ------- 1 0.0 1.0 191 7509
+ 5.243941 0 1 tcp 1250 ------- 1 0.0 1.0 192 7511
+ 5.244941 0 1 tcp 1250 ------- 1 0.0 1.0 193 7513
+ 5.245941 0 1 tcp 1250 ------- 1 0.0 1.0 194 7515
+ 5.246941 0 1 tcp 1250 ------- 1 0.0 1.0 195 7517
+ 5.247941 0 1 tcp 1250 ------- 1 0.0 1.0 196 7519
+ 5.248941 0 1 tcp 1250 ------- 1 0.0 1.0 197 7521
+ 5.249941 0 1 tcp 1250 ------- 1 0.0 1.0 198 7523
+ 5.250941 0 1 tcp 1250 ------- 1 0.0 1.0 199 7525
+ 5.251941 0 1 tcp 1250 ------- 1 0.0 1.0 200 7527
+ 5.252941 0 1 tcp 1250 ------- 1 0.0 1.0 201 7529
+ 5.253941 0 1 tcp 1250 ------- 1 0.0 1.0 202 7531
+ 5.254941 0 1 tcp 1250 ------- 1 0.0 1.0 203 7533
+ 5.255941 0 1 tcp 1250 ------- 1 0.0 1.0 204 7535
+ 5.256941 0 1 tcp 1250 ------- 1 0.0 1.0 205 7537
+ 5.257941 0 1 tcp 1250 ------- 1 0.0 1.0 206 7539
+ 5.258941 0 1 tcp 1250 ------- 1 0.0 1.0 207 7541
+ 5.259941 0 1 tcp 1250 ------- 1 0.0 1.0 208 7543
+ 5.266941 0 1 tcp 1250 ------- 1 0.0 1.0 209 7551
+ 5.267941 0 1 tcp 1250 ------- 1 0.0 1.0 210 7553
+ 5.269941 0 1 tcp 1250 ------- 1 0.0 1.0 211 7556
+ 5.270941 0 1 tcp 1250 ------- 1 0.0 1.0 212 7558
+ 5.271941 0 1 tcp 1250 ------- 1 0.0 1.0 213 7560
+ 5.272941 0 1 tcp 1250 ------- 1 0.0 1.0 214 7562
+ 5.273941 0 1 tcp 1250 ------- 1 0.0 1.0 215 7564
+ 5.274941 0 1 tcp 1250 ------- 1 0.0 1.0 216 7566
+ 5.275941 0 1 tcp 1250 ------- 1 0.0 1.0 217 7568
+ 5.276941 0 1 tcp 1250 ------- 1 0.0 1.0 218 7570
+ 5.277941 0 1 tcp 1250 ------- 1 0.0 1.0 219 7572
+ 5.278941 0 1 tcp 1250 ------- 1 0.0 1.0 220 7574
+ 5.279941 0 1 tcp 1250 ------- 1 0.0 1.0 221 7576
+ 5.280941 0 1 tcp 1250 ------- 1 0.0 1.0 222 7578
+ 5.281941 0 1 tcp 1250 ------- 1 0.0 1.0 223 7580
+ 5.282941 0 1 tcp 1250 ------- 1 0.0 1.0 224 7582
+ 5.283941 0 1 tcp 1250 ------- 1 0.0 1.0 225 7584
+ 5.284941 0 1 tcp 1250 ------- 1 0.0 1.0 226 7586
+ 5.285941 0 1 tcp 1250 ------- 1 0.0 1.0 227 7588
+ 5.286941 0 1 tcp 1250 ------- 1 0.0 1.0 228 7590
+ 5.287941 0 1 tcp 1250 ------- 1 0.0 1.0 229 7592
+ 5.288941 0 1 tcp 1250 ------- 1 0.0 1.0 230 7594
+ 5.289941 0 1 tcp 1250 ------- 1 0.0 1.0 231 7596
+ 5.290941 0 1 tcp 1250 ------- 1 0.0 1.0 232 7598
+ 5.291941 0 1 tcp 1250 ------- 1 0.0 1.0 233 7600
+ 5.292841 0 1 tcp 1250 ------- 1 0.0 1.0 234 7601
+ 5.293741 0 1 tcp 1250 ------- 1 0.0 1.0 235 7603
+ 5.294641 0 1 tcp 1250 ------- 1 0.0 1.0 236 7605
+ 5.295541 0 1 tcp 1250 ------- 1 0.0 1.0 237 7607
+ 5.296441 0 1 tcp 1250 ------- 1 0.0 1.0 238 7609
+ 5.297341 0 1 tcp 1250 ------- 1 0.0 1.0 239 7611
+ 5.298241 0 1 tcp 1250 ------- 1 0.0 1.0 240 7613
+ 5.299141 0 1 tcp 1250 ------- 1 0.0 1.0 241 7615
+ 5.300041 0 1 tcp 1250 ------- 1 0.0 1.0 242 7617
+ 5.300941 0 1 tcp 1250 ------- 1 0.0 1.0 243 7619
+ 5.301841 0 1 tcp 1250 ------- 1 0.0 1.0 244 7620
+ 5.302741 0 1 tcp 1250 ------- 1 0.0 1.0 245 7622
+ 5.303641 0 1 tcp 1250 ------- 1 0.0 1.0 246 7624
+ 5.304541 0 1 tcp 1250 ------- 1 0.0 1.0 247 7626
+ 5.305441 0 1 tcp 1250 ------- 1 0.0 1.0 248 7628
+ 5.306341 0 1 tcp 1250 ------- 1 0.0 1.0 249 7630
+ 5.307241 0 1 tcp 1250 ------- 1 0.0 1.0 250 7632
+ 5.308141 0 1 tcp 1250 ------- 1 0.0 1.0 251 7634
+ 5.309041 0 1 tcp 1250 ------- 1 0.0 1.0 252 7636
+ 5.309941 0 1 tcp 1250 ------- 1 0.0 1.0 253 7638
+ 5.310841 0 1 tcp 1250 ------- 1 0.0 1.0 254 7639
+ 5.311741 0 1 tcp 1250 ------- 1 0.0 1.0 255 7641
+ 5.312641 0 1 tcp 1250 ------- 1 0.0 1.0 256 7643
+ 5.313541 0 1 tcp 1250 ------- 1 0.0 1.0 257 7645
+ 5.314441 0 1 tcp 1250 ------- 1 0.0 1.0 258 7647
+ 5.315341 0 1 tcp 1250 ------- 1 0.0 1.0 259 7649
+ 5.316241 0 1 tcp 1250 ------- 1 0.0 1.0 260 7651
+ 5.317141 0 1 tcp 1250 ------- 1 0.0 1.0 261 7653
+ 5.318041 0 1 tcp 1250 ------- 1 0.0 1.0 262 7655
+ 5.318941 0 1 tcp 1250 ------- 1 0.0 1.0 263 7657
+ 5.319841 0 1 tcp 1250 ------- 1 0.0 1.0 264 7658
+ 5.320741 0 1 tcp 1250 ------- 1 0.0 1.0 265 7660
+ 5.321641 0 1 tcp 1250 ------- 1 0.0 1.0 266 7662
+ 5.322541 0 1 tcp 1250 ------- 1 0.0 1.0 267 7664
+ 5.323441 0 1 tcp 1250 ------- 1 0.0 1.0 268 7666
+ 5.324341 0 1 tcp 1250 ------- 1 0.0 1.0 269 7668
+ 5.325241 0 1 tcp 1250 ------- 1 0.0 1.0 270 7670
+ 5.326141 0 1 tcp 1250 ------- 1 0.0 1.0 271 7672
+ 5.327041 0 1 tcp 1250 ------- 1 0.0 1.0 272 7674
+ 5.327941 0 1 tcp 1250 ------- 1 0.0 1.0 273 7676
+ 5.328841 0 1 tcp 1250 ------- 1 0.0 1.0 274 7677
+ 5.329741 0 1 tcp 1250 ------- 1 0.0 1.0 275 7679
+ 5.330641 0 1 tcp 1250 ------- 1 0.0 1.0 276 7681
+ 5.331541 0 1 tcp 1250 ------- 1 0.0 1.0 277 7683
+ 5.332441 0 1 tcp 1250 ------- 1 0.0 1.0 278 7685
+ 5.333341 0 1 tcp 1250 ------- 1 0.0 1.0 279 7687
+ 5.334241 0 1 tcp 1250 ------- 1 0.0 1.0 280 7689
+ 5.335141 0 1 tcp 1250 ------- 1 0.0 1.0 281 7691
+ 5.336041 0 1 tcp 1250 ------- 1 0.0 1.0 282 7693
+ 5.336941 0 1 tcp 1250 ------- 1 0.0 1.0 283 7695
+ 5.337841 0 1 tcp 1250 ------- 1 0.0 1.0 284 7696
+ 5.338741 0 1 tcp 1250 ------- 1 0.0 1.0 285 7698
+ 5.339641 0 1 tcp 1250 ------- 1 0.0 1.0 286 7700
+ 5.340541 0 1 tcp 1250 ------- 1 0.0 1.0 287 7702
+ 5.341441 0 1 tcp 1250 ------- 1 0.0 1.0 288 7704
+ 5.342341 0 1 tcp 1250 ------- 1 0.0 1.0 289 7706
+ 5.343241 0 1 tcp 1250 ------- 1 0.0 1.0 290 7708
+ 5.344141 0 1 tcp 1250 ------- 1 0.0 1.0 291 7710
+ 5.345041 0 1 tcp 1250 ------- 1 0.0 1.0 292 7712
+ 5.345941 0 1 tcp 1250 ------- 1 0.0 1.0 293 7714
+ 5.346841 0 1 tcp 1250 ------- 1 0.0 1.0 294 7715
+ 5.347741 0 1 tcp 1250 ------- 1 0.0 1.0 295 7717
+ 5.348641 0 1 tcp 1250 ------- 1 0.0 1.0 296 7719
+ 5.349541 0 1 tcp 1250 ------- 1 0.0 1.0 297 7721
+ 5.350441 0 1 tcp 1250 ------- 1 0.0 1.0 298 7723
+ 5.351341 0 1 tcp 1250 ------- 1 0.0 1.0 299 7725
+ 5.352241 0 1 tcp 1250 ------- 1 0.0 1.0 300 7727
+ 5.353141 0 1 tcp 1250 ------- 1 0.0 1.0 301 7729
+ 5.354041 0 1 tcp 1250 ------- 1 0.0 1.0 302 7731
+ 5.354941 0 1 tcp 1250 ------- 1 0.0 1.0 303 7733
+ 5.355941 0 1 tcp 1250 ------- 1 0.0 1.0 304 7735
+ 5.356941 0 1 tcp 1250 ------- 1 0.0 1.0 305 7737
+ 5.357941 0 1 tcp 1250 ------- 1 0.0 1.0 306 7739
+ 5.358941 0 1 tcp 1250 ------- 1 0.0 1.0 307 7741
+ 5.359941 0 1 tcp 1250 ------- 1 0.0 1.0 308 7743
+ 5.360941 0 1 tcp 1250 ------- 1 0.0 1.0 309 7745
+ 5.361941 0 1 tcp 1250 ------- 1 0.0 1.0 310 7747
+ 5.362941 0 1 tcp 1250 ------- 1 0.0 1.0 311 7749
+ 5.363941 0 1 tcp 1250 ------- 1 0.0 1.0 312 7751
+ 5.364941 0 1 tcp 1250 ------- 1 0.0 1.0 313 7753
+ 5.365941 0 1 tcp 1250 ------- 1 0.0 1.0 314 7755
+ 5.366941 0 1 tcp 1250 ------- 1 0.0 1.0 315 7757
+ 5.367941 0 1 tcp 1250 ------- 1 0.0 1.0 316 7759
+ 5.368941 0 1 tcp 1250 ------- 1 0.0 1.0 317 7761
+ 5.369941 0 1 tcp 1250 ------- 1 0.0 1.0 318 7763
+ 5.370941 0 1 tcp 1250 ------- 1 0.0 1.0 319 7765
+ 5.378941 0 1 tcp 1250 ------- 1 0.0 1.0 320 7774
+ 5.379941 0 1 tcp 1250 ------- 1 0.0 1.0 321 7776
+ 5.380941 0 1 tcp 1250 ------- 1 0.0 1.0 322 7778
+ 5.381841 0 1 tcp 1250 ------- 1 0.0 1.0 323 7779
+ 5.382741 0 1 tcp 1250 ------- 1 0.0 1.0 324 7781
+ 5.383641 0 1 tcp 1250 ------- 1 0.0 1.0 325 7783
+ 5.384541 0 1 tcp 1250 ------- 1 0.0 1.0 326 7785
+ 5.385441 0 1 tcp 1250 ------- 1 0.0 1.0 327 7787
+ 5.386341 0 1 tcp 1250 ------- 1 0.0 1.0 328 7789
+ 5.387241 0 1 tcp 1250 ------- 1 0.0 1.0 329 7791
+ 5.388141 0 1 tcp 1250 ------- 1 0.0 1.0 330 7793
+ 5.389041 0 1 tcp 1250 ------- 1 0.0 1.0 331 7795
+ 5.389941 0 1 tcp 1250 ------- 1 0.0 1.0 332 7797
+ 5.390841 0 1 tcp 1250 ------- 1 0.0 1.0 333 7798
+ 5.391741 0 1 tcp 1250 ------- 1 0.0 1.0 334 7800
+ 5.392641 0 1 tcp 1250 ------- 1 0.0 1.0 335 7802
+ 5.393541 0 1 tcp 1250 ------- 1 0.0 1.0 336 7804
+ 5.394441 0 1 tcp 1250 ------- 1 0.0 1.0 337 7806
+ 5.395341 0 1 tcp 1250 ------- 1 0.0 1.0 338 7808
+ 5.396241 0 1 tcp 1250 ------- 1 0.0 1.0 339 7810
+ 5.397141 0 1 tcp 1250 ------- 1 0.0 1.0 340 7812
+ 5.398041 0 1 tcp 1250 ------- 1 0.0 1.0 341 7814
+ 5.398941 0 1 tcp 1250 ------- 1 0.0 1.0 342 7816
+ 5.399841 0 1 tcp 1250 ------- 1 0.0 1.0 343 7817
+ 5.400741 0 1 tcp 1250 ------- 1 0.0 1.0 344 7819
+ 5.401641 0 1 tcp 1250 ------- 1 0.0 1.0 345 7821
+ 5.402541 0 1 tcp 1250 ------- 1 0.0 1.0 346 7823
+ 5.403441 0 1 tcp 1250 ------- 1 0.0 1.0 347 7825
+ 5.404341 0 1 tcp 1250 ------- 1 0.0 1.0 348 7827
+ 5.405241 0 1 tcp 1250 ------- 1 0.0 1.0 349 7829
+ 5.406141 0 1 tcp 1250 ------- 1 0.0 1.0 350 7831
+ 5.407041 0 1 tcp 1250 ------- 1 0.0 1.0 351 7833
+ 5.407941 0 1 tcp 1250 ------- 1 0.0 1.0 352 7835
+ 5.408841 0 1 tcp 1250 ------- 1 0.0 1.0 353 7836
+ 5.409741 0 1 tcp 1250 ------- 1 0.0 1.0 354 7838
+ 5.410641 0 1 tcp 1250 ------- 1 0.0 1.0 355 7840
+ 5.411541 0 1 tcp 1250 ------- 1 0.0 1.0 356 7842
+ 5.412441 0 1 tcp 1250 ------- 1 0.0 1.0 357 7844
+ 5.413341 0 1 tcp 1250 ------- 1 0.0 1.0 358 7846
+ 5.414241 0 1 tcp 1250 ------- 1 0.0 1.0 359 7848
+ 5.415141 0 1 tcp 1250 ------- 1 0.0 1.0 360 7850
+ 5.416041 0 1 tcp 1250 ------- 1 0.0 1.0 361 7852
+ 5.416941 0 1 tcp 1250 ------- 1 0.0 1.0 362 7854
+ 5.417841 0 1 tcp 1250 ------- 1 0.0 1.0 363 7855
+ 5.418741 0 1 tcp 1250 ------- 1 0.0 1.0 364 7857
+ 5.419641 0 1 tcp 1250 ------- 1 0.0 1.0 365 7859
+ 5.420541 0 1 tcp 1250 ------- 1 0.0 1.0 366 7861
+ 5.421441 0 1 tcp 1250 ------- 1 0.0 1.0 367 7863
+ 5.422341 0 1 tcp 1250 ------- 1 0.0 1.0 368 7865
+ 5.423241 0 1 tcp 1250 ------- 1 0.0 1.0 369 7867
+ 5.424141 0 1 tcp 1250 ------- 1 0.0 1.0 370 7869
+ 5.425041 0 1 tcp 1250 ------- 1 0.0 1.0 371 7871
+ 5.425941 0 1 tcp 1250 ------- 1 0.0 1.0 372 7873
+ 5.426841 0 1 tcp 1250 ------- 1 0.0 1.0 373 7874
+ 5.427741 0 1 tcp 1250 ------- 1 0.0 1.0 374 7876
+ 5.428641 0 1 tcp 1250 ------- 1 0.0 1.0 375 7878
+ 5.429541 0 1 tcp 1250 ------- 1 0.0 1.0 376 7880
+ 5.430441 0 1 tcp 1250 ------- 1 0.0 1.0 377 7882
+ 5.431341 0 1 tcp 1250 ------- 1 0.0 1.0 378 7884
+ 5.432241 0 1 tcp 1250 ------- 1 0.0 1.0 379 7886
+ 5.433141 0 1 tcp 1250 ------- 1 0.0 1.0 380 7888
+ 5.434041 0 1 tcp 1250 ------- 1 0.0 1.0 381 7890
+ 5.434941 0 1 tcp 1250 ------- 1 0.0 1.0 382 7892
+ 5.435841 0 1 tcp 1250 ------- 1 0.0 1.0 383 7893
+ 5.436741 0 1 tcp 1250 ------- 1 0.0 1.0 384 7895
+ 5.437641 0 1 tcp 1250 ------- 1 0.0 1.0 385 7897
+ 5.438541 0 1 tcp 1250 ------- 1 0.0 1.0 386 7899
+ 5.439441 0 1 tcp 1250 ------- 1 0.0 1.0 387 7901
+ 5.440341 0 1 tcp 1250 ------- 1 0.0 1.0 388 7903
+ 5.441241 0 1 tcp 1250 ------- 1 0.0 1.0 389 7905
+ 5.442141 0 1 tcp 1250 ------- 1 0.0 1.0 390 7907
+ 5.443041 0 1 tcp 1250 ------- 1 0.0 1.0 391 7909
+ 5.443941 0 1 tcp 1250 ------- 1 0.0 1.0 392 7911
+ 5.444941 0 1 tcp 1250 ------- 1 0.0 1.0 393 7913
+ 5.445941 0 1 tcp 1250 ------- 1 0.0 1.0 394 7915
+ 5.446941 0 1 tcp 1250 ------- 1 0.0 1.0 395 7917
+ 5.447941 0 1 tcp 1250 ------- 1 0.0 1.0 396 7919
+ 5.448941 0 1 tcp 1250 ------- 1 0.0 1.0 397 7921
+ 5.449941 0 1 tcp 1250 ------- 1 0.0 1.0 398 7923
+ 5.450941 0 1 tcp 1250 ------- 1 0.0 1.0 399 7925
+ 5.451941 0 1 tcp 1250 ------- 1 0.0 1.0 400 7927
+ 5.452941 0 1 tcp 1250 ------- 1 0.0 1.0 401 7929
+ 5.453941 0 1 tcp 1250 ------- 1 0.0 1.0 402 7931
+ 5.454941 0 1 tcp 1250 ------- 1 0.0 1.0 403 7933
+ 5.455941 0 1 tcp 1250 ------- 1 0.0 1.0 404 7935
+ 5.456941 0 1 tcp 1250 ------- 1 0.0 1.0 405 7937
+ 5.457941 0 1 tcp 1250 ------- 1 0.0 1.0 406 7939
+ 5.464941 0 1 tcp 1250 ------- 1 0.0 1.0 407 7947
+ 5.465941 0 1 tcp 1250 ------- 1 0.0 1.0 408 7949
+ 5.466941 0 1 tcp 1250 ------- 1 0.0 1.0 409 7951
+ 5.467941 0 1 tcp 1250 ------- 1 0.0 1.0 410 7953
+ 5.468941 0 1 tcp 1250 ------- 1 0.0 1.0 411 7955
+ 5.469941 0 1 tcp 1250 ------- 1 0.0 1.0 412 7957
+ 5.470941 0 1 tcp 1250 ------- 1 0.0 1.0 413 7959
+ 5.471941 0 1 tcp 1250 ------- 1 0.0 1.0 414 7961
+ 5.472941 0 1 tcp 1250 ------- 1 0.0 1.0 415 7963
+ 5.473941 0 1 tcp 1250 ------- 1 0.0 1.0 416 7965
+ 5.474941 0 1 tcp 1250 ------- 1 0.0 1.0 417 7967
+ 5.475941 0 1 tcp 1250 ------- 1 0.0 1.0 418 7969
+ 5.476941 0 1 tcp 1250 ------- 1 0.0 1.0 419 7971
+ 5.477941 0 1 tcp 1250 ------- 1 0.0 1.0 420 7973
+ 5.478941 0 1 tcp 1250 ------- 1 0.0 1.0 421 7975
+ 5.479941 0 1 tcp 1250 ------- 1 0.0 1.0 422 7977
+ 5.480941 0 1 tcp 1250 ------- 1 0.0 1.0 423 7979
+ 5.481941 0 1 tcp 1250 ------- 1 0.0 1.0 424 7981
+ 5.483941 0 1 tcp 1250 ------- 1 0.0 1.0 425 7984
+ 5.484941 0 1 tcp 1250 ------- 1 0.0 1.0 426 7986
+ 5.485941 0 1 tcp 1250 ------- 1 0.0 1.0 427 7988
+ 5.486941 0 1 tcp 1250 ------- 1 0.0 1.0 428 7990
+ 5.487941 0 1 tcp 1250 ------- 1 0.0 1.0 429 7992
+ 5.488941 0 1 tcp 1250 ------- 1 0.0 1.0 430 7994
+ 5.489941 0 1 tcp 1250 ------- 1 0.0 1.0 431 7996
+ 5.490841 0 1 tcp 1250 ------- 1 0.0 1.0 432 7997
+ 5.491741 0 1 tcp 1250 ------- 1 0.0 1.0 433 7999
+ 5.492641 0 1 tcp 1250 ------- 1 0.0 1.0 434 8001
+ 5.493541 0 1 tcp 1250 ------- 1 0.0 1.0 435 8003
+ 5.494441 0 1 tcp 1250 ------- 1 0.0 1.0 436 8005
+ 5.495341 0 1 tcp 1250 ------- 1 0.0 1.0 437 8007
+ 5.496241 0 1 tcp 1250 ------- 1 0.0 1.0 438 8009
+ 5.497141 0 1 tcp 1250 ------- 1 0.0 1.0 439 8011
+ 5.498041 0 1 tcp 1250 ------- 1 0.0 1.0 440 8013
+ 5.498941 0 1 tcp 1250 ------- 1 0.0 1.0 441 8015
+ 5.499841 0 1 tcp 1250 ------- 1 0.0 1.0 442 8016
+ 5.500741 0 1 tcp 1250 ------- 1 0.0 1.0 443 8018
+ 5.501641 0 1 tcp 1250 ------- 1 0.0 1.0 444 8020
+ 5.502541 0 1 tcp 1250 ------- 1 0.0 1.0 445 8022
+ 5.503441 0 1 tcp 1250 ------- 1 0.0 1.0 446 8024
+ 5.504341 0 1 tcp 1250 ------- 1 0.0 1.0 447 8026
+ 5.505241 0 1 tcp 1250 ------- 1 0.0 1.0 448 8028
+ 5.506141 0 1 tcp 1250 ------- 1 0.0 1.0 449 8030
+ 5.507041 0 1 tcp 1250 ------- 1 0.0 1.0 450 8032
+ 5.507941 0 1 tcp 1250 ------- 1 0.0 1.0 451 8034
+ 5.508841 0 1 tcp 1250 ------- 1 0.0 1.0 452 8035
+ 5.509741 0 1 tcp 1250 ------- 1 0.0 1.0 453 8037
+ 5.510641 0 1 tcp 1250 ------- 1 0.0 1.0 454 8039
+ 5.511541 0 1 tcp 1250 ------- 1 0.0 1.0 455 8041
+ 5.512441 0 1 tcp 1250 ------- 1 0.0 1.0 456 8043
+ 5.513341 0 1 tcp 1250 ------- 1 0.0 1.0 457 8045
+ 5.514241 0 1 tcp 1250 ------- 1 0.0 1.0 458 8047
+ 5.515141 0 1 tcp 1250 ------- 1 0.0 1.0 459 8049
+ 5.516041 0 1 tcp 1250 ------- 1 0.0 1.0 460 8051
+ 5.516941 0 1 tcp 1250 ------- 1 0.0 1.0 461 8053
+ 5.517841 0 1 tcp 1250 ------- 1 0.0 1.0 462 8054
+ 5.518741 0 1 tcp 1250 ------- 1 0.0 1.0 463 8056
+ 5.519641 0 1 tcp 1250 ------- 1 0.0 1.0 464 8058
+ 5.520541 0 1 tcp 1250 ------- 1 0.0 1.0 465 8060
+ 5.521441 0 1 tcp 1250 ------- 1 0.0 1.0 466 8062
+ 5.522341 0 1 tcp 1250 ------- 1 0.0 1.0 467 8064
+ 5.523241 0 1 tcp 1250 ------- 1 0.0 1.0 468 8066
+ 5.524141 0 1 tcp 1250 ------- 1 0.0 1.0 469 8068
+ 5.525041 0 1 tcp 1250 ------- 1 0.0 1.0 470 8070
+ 5.525941 0 1 tcp 1250 ------- 1 0.0 1.0 471 8072
+ 5.526841 0 1 tcp 1250 ------- 1 0.0 1.0 472 8073
+ 5.527741 0 1 tcp 1250 ------- 1 0.0 1.0 473 8075
+ 5.528641 0 1 tcp 1250 ------- 1 0.0 1.0 474 8077
+ 5.529541 0 1 tcp 1250 ------- 1 0.0 1.0 475 8079
+ 5.530441 0 1 tcp 1250 ------- 1 0.0 1.0 476 8081
+ 5.531341 0 1 tcp 1250 ------- 1 0.0 1.0 477 8083
+ 5.532241 0 1 tcp 1250 ------- 1 0.0 1.0 478 8085
+ 5.533141 0 1 tcp 1250 ------- 1 0.0 1.0 479 8087
+ 5.534041 0 1 tcp 1250 ------- 1 0.0 1.0 480 8089
+ 5.534941 0 1 tcp 1250 ------- 1 0.0 1.0 481 8091
+ 5.535841 0 1 tcp 1250 ------- 1 0.0 1.0 482 8092
+ 5.536741 0 1 tcp 1250 ------- 1 0.0 1.0 483 8094
+ 5.537641 0 1 tcp 1250 ------- 1 0.0 1.0 484 8096
+ 5.538541 0 1 tcp 1250 ------- 1 0.0 1.0 485 8098
+ 5.539441 0 1 tcp 1250 ------- 1 0.0 1.0 486 8100
+ 5.540341 0 1 tcp 1250 ------- 1 0.0 1.0 487 8102
+ 5.541241 0 1 tcp 1250 ------- 1 0.0 1.0 488 8104
+ 5.542141 0 1 tcp 1250 ------- 1 0.0 1.0 489 8106
+ 5.543041 0 1 tcp 1250 ------- 1 0.0 1.0 490 8108
+ 5.543941 0 1 tcp 1250 ------- 1 0.0 1.0 491 8110
+ 5.544841 0 1 tcp 1250 ------- 1 0.0 1.0 492 8111
+ 5.545741 0 1 tcp 1250 ------- 1 0.0 1.0 493 8113
+ 5.546641 0 1 tcp 1250 ------- 1 0.0 1.0 494 8115
+ 5.547541 0 1 tcp 1250 ------- 1 0.0 1.0 495 8117
+ 5.553941 0 1 tcp 1250 ------- 1 0.0 1.0 496 8125
+ 5.554941 0 1 tcp 1250 ------- 1 0.0 1.0 497 8127
+ 5.555941 0 1 tcp 1250 ------- 1 0.0 1.0 498 8129
+ 5.556941 0 1 tcp 1250 ------- 1 0.0 1.0 499 8131
+ 5.557941 0 1 tcp 1250 ------- 1 0.0 1.0 500 8133
+ 5.558941 0 1 tcp 1250 ------- 1 0.0 1.0 501 8135
+ 5.559941 0 1 tcp 1250 ------- 1 0.0 1.0 502 8137
+ 5.560941 0 1 tcp 1250 ------- 1 0.0 1.0 503 8139
+ 5.561941 0 1 tcp 1250 ------- 1 0.0 1.0 504 8141
+ 5.562941 0 1 tcp 1250 ------- 1 0.0 1.0 505 8143
+ 5.563941 0 1 tcp 1250 ------- 1 0.0 1.0 506 8145
+ 5.564941 0 1 tcp 1250 ------- 1 0.0 1.0 507 8147
+ 5.565941 0 1 tcp 1250 ------- 1 0.0 1.0 508 8149
+ 5.566941 0 1 tcp 1250 ------- 1 0.0 1.0 509 8151
+ 5.567941 0 1 tcp 1250 ------- 1 0.0 1.0 510 8153
+ 5.568941 0 1 tcp 1250 ------- 1 0.0 1.0 511 8155
+ 5.570941 0 1 tcp 1250 ------- 1 0.0 1.0 512 8158
+ 5.571941 0 1 tcp 1250 ------- 1 0.0 1.0 513 8160
+ 5.572941 0 1 tcp 1250 ------- 1 0.0 1.0 514 8162
+ 5.573941 0 1 tcp 1250 ------- 1 0.0 1.0 515 8164
+ 5.574941 0 1 tcp 1250 ------- 1 0.0 1.0 516 8166
+ 5.575941 0 1 tcp 1250 ------- 1 0.0 1.0 517 8168
+ 5.576941 0 1 tcp 1250 ------- 1 0.0 1.0 518 8170
+ 5.577841 0 1 tcp 1250 ------- 1 0.0 1.0 519 8171
+ 5.578741 0 1 tcp 1250 ------- 1 0.0 1.0 520 8173
+ 5.579641 0 1 tcp 1250 ------- 1 0.0 1.0 521 8175
+ 5.580541 0 1 tcp 1250 ------- 1 0.0 1.0 522 8177
+ 5.581441 0 1 tcp 1250 ------- 1 0.0 1.0 523 8179
+ 5.582341 0 1 tcp 1250 ------- 1 0.0 1.0 524 8181
+ 5.583241 0 1 tcp 1250 ------- 1 0.0 1.0 525 8183
+ 5.584141 0 1 tcp 1250 ------- 1 0.0 1.0 526 8185
+ 5.585041 0 1 tcp 1250 ------- 1 0.0 1.0 527 8187
+ 5.585941 0 1 tcp 1250 ------- 1 0.0 1.0 528 8189
+ 5.586841 0 1 tcp 1250 ------- 1 0.0 1.0 529 8190
+ 5.587741 0 1 tcp 1250 ------- 1 0.0 1.0 530 8192
+ 5.588641 0 1 tcp 1250 ------- 1 0.0 1.0 531 8194
+ 5.589541 0 1 tcp 1250 ------- 1 0.0 1.0 532 8196
+ 5.590441 0 1 tcp 1250 ------- 1 0.0 1.0 533 8198
+ 5.591341 0 1 tcp 1250 ------- 1 0.0 1.0 534 8200
+ 5.592241 0 1 tcp 1250 ------- 1 0.0 1.0 535 8202
+ 5.593141 0 1 tcp 1250 ------- 1 0.0 1.0 536 8204
+ 5.594041 0 1 tcp 1250 ------- 1 0.0 1.0 537 8206
+ 5.594941 0 1 tcp 1250 ------- 1 0.0 1.0 538 8208
+ 5.595841 0 1 tcp 1250 ------- 1 0.0 1.0 539 8209
+ 5.596741 0 1 tcp 1250 ------- 1 0.0 1.0 540 8211
+ 5.597641 0 1 tcp 1250 ------- 1 0.0 1.0 541 8213
+ 5.598541 0 1 tcp 1250 ------- 1 0.0 1.0 542 8215
+ 5.599441 0 1 tcp 1250 ------- 1 0.0 1.0 543 8217
+ 5.600341 0 1 tcp 1250 ------- 1 0.0 1.0 544 8219
+ 5.601241 0 1 tcp 1250 ------- 1 0.0 1.0 545 8221
+ 5.602141 0 1 tcp 1250 ------- 1 0.0 1.0 546 8223
+ 5.603041 0 1 tcp 1250 ------- 1 0.0 1.0 547 8225
+ 5.603941 0 1 tcp 1250 ------- 1 0.0 1.0 548 8227
+ 5.604841 0 1 tcp 1250 ------- 1 0.0 1.0 549 8228
+ 5.605741 0 1 tcp 1250 ------- 1 0.0 1.0 550 8230
+ 5.606641 0 1 tcp 1250 ------- 1 0.0 1.0 551 8232
+ 5.607541 0 1 tcp 1250 ------- 1 0.0 1.0 552 8234
+ 5.608441 0 1 tcp 1250 ------- 1 0.0 1.0 553 8236
+ 5.609341 0 1 tcp 1250 ------- 1 0.0 1.0 554 8238
+ 5.610241 0 1 tcp 1250 ------- 1 0.0 1.0 555 8240
+ 5.611141 0 1 tcp 1250 ------- 1 0.0 1.0 556 8242
+ 5.612041 0 1 tcp 1250 ------- 1 0.0 1.0 557 8244
+ 5.612941 0 1 tcp 1250 ------- 1 0.0 1.0 558 8246
+ 5.613841 0 1 tcp 1250 ------- 1 0.0 1.0 559 8247
+ 5.614741 0 1 tcp 1250 ------- 1 0.0 1.0 560 8249
+ 5.615641 0 1 tcp 1250 ------- 1 0.0 1.0 561 8251
+ 5.616541 0 1 tcp 1250 ------- 1 0.0 1.0 562 8253
+ 5.617441 0 1 tcp 1250 ------- 1 0.0 1.0 563 8255
+ 5.618341 0 1 tcp 1250 ------- 1 0.0 1.0 564 8257
+ 5.619241 0 1 tcp 1250 ------- 1 0.0 1.0 565 8259
+ 5.620141 0 1 tcp 1250 ------- 1 0.0 1.0 566 8261
+ 5.621041 0 1 tcp 1250 ------- 1 0.0 1.0 567 8263
+ 5.621941 0 1 tcp 1250 ------- 1 0.0 1.0 568 8265
+ 5.622841 0 1 tcp 1250 ------- 1 0.0 1.0 569 8266
+ 5.623741 0 1 tcp 1250 ------- 1 0.0 1.0 570 8268
+ 5.624641 0 1 tcp 1250 ------- 1 0.0 1.0 571 8270
+ 5.625541 0 1 tcp 1250 ------- 1 0.0 1.0 572 8272
+ 5.626441 0 1 tcp 1250 ------- 1 0.0 1.0 573 8274
+ 5.627341 0 1 tcp 1250 ------- 1 0.0 1.0 574 8276
+ 5.628241 0 1 tcp 1250 ------- 1 0.0 1.0 575 8278
+ 5.629141 0 1 tcp 1250 ------- 1 0.0 1.0 576 8280
+ 5.630041 0 1 tcp 1250 ------- 1 0.0 1.0 577 8282
+ 5.630941 0 1 tcp 1250 ------- 1 0.0 1.0 578 8284
+ 5.631841 0 1 tcp 1250 ------- 1 0.0 1.0 579 8285
+ 5.632741 0 1 tcp 1250 ------- 1 0.0 1.0 580 8287
+ 5.633641 0 1 tcp 1250 ------- 1 0.0 1.0 581 8289
+ 5.634541 0 1 tcp 1250 ------- 1 0.0 1.0 582 8291
+ 5.635441 0 1 tcp 1250 ------- 1 0.0 1.0 583 8293
+ 5.636341 0 1 tcp 1250 ------- 1 0.0 1.0 584 8295
+ 5.637241 0 1 tcp 1250 ------- 1 0.0 1.0 585 8297
+ 5.638141 0 1 tcp 1250 ------- 1 0.0 1.0 586 8299
+ 5.639041 0 1 tcp 1250 ------- 1 0.0 1.0 587 8301
+ 5.639941 0 1 tcp 1250 ------- 1 0.0 1.0 588 8303
+ 5.640941 0 1 tcp 1250 ------- 1 0.0 1.0 589 8305
+ 5.641941 0 1 tcp 1250 ------- 1 0.0 1.0 590 8307
+ 5.642941 0 1 tcp 1250 ------- 1 0.0 1.0 591 8309
+ 5.643941 0 1 tcp 1250 ------- 1 0.0 1.0 592 8311
+ 5.644941 0 1 tcp 1250 ------- 1 0.0 1.0 593 8313