+ 5 0 1 tcp 1250 ------- 1 0.0 1.0 0 7075
+ 5.0006 0 1 tcp 1250 ------- 1 0.0 1.0 1 7076
+ 5.001199 0 1 tcp 1250 ------- 1 0.0 1.0 2 7078
+ 5.001799 0 1 tcp 1250 ------- 1 0.0 1.0 3 7079
+ 5.002398 0 1 tcp 1250 ------- 1 0.0 1.0 4 7081
+ 5.002998 0 1 tcp 1250 ------- 1 0.0 1.0 5 7083
+ 5.003598 0 1 tcp 1250 ------- 1 0.0 1.0 6 7084
+ 5.004197 0 1 tcp 1250 ------- 1 0.0 1.0 7 7086
+ 5.004797 0 1 tcp 1250 ------- 1 0.0 1.0 8 7087
+ 5.005396 0 1 tcp 1250 ------- 1 0.0 1.0 9 7089
+ 5.005996 0 1 tcp 1250 ------- 1 0.0 1.0 10 7091
+ 5.006596 0 1 tcp 1250 ------- 1 0.0 1.0 11 7092
+ 5.007195 0 1 tcp 1250 ------- 1 0.0 1.0 12 7094
+ 5.007795 0 1 tcp 1250 ------- 1 0.0 1.0 13 7095
+ 5.008394 0 1 tcp 1250 ------- 1 0.0 1.0 14 7097
+ 5.008994 0 1 tcp 1250 ------- 1 0.0 1.0 15 7099
+ 5.009594 0 1 tcp 1250 ------- 1 0.0 1.0 16 7100
+ 5.010193 0 1 tcp 1250 ------- 1 0.0 1.0 17 7102
+ 5.010793 0 1 tcp 1250 ------- 1 0.0 1.0 18 7103
+ 5.011392 0 1 tcp 1250 ------- 1 0.0 1.0 19 7105
+ 5.011992 0 1 tcp 1250 ------- 1 0.0 1.0 20 7107
+ 5.012592 0 1 tcp 1250 ------- 1 0.0 1.0 21 7108
+ 5.013191 0 1 tcp 1250 ------- 1 0.0 1.0 22 7110
+ 5.013791 0 1 tcp 1250 ------- 1 0.0 1.0 23 7111
+ 5.01439 0 1 tcp 1250 ------- 1 0.0 1.0 24 7113
+ 5.01499 0 1 tcp 1250 ------- 1 0.0 1.0 25 7115
+ 5.01559 0 1 tcp 1250 ------- 1 0.0 1.0 26 7116
+ 5.016189 0 1 tcp 1250 ------- 1 0.0 1.0 27 7118
+ 5.016789 0 1 tcp 1250 ------- 1 0.0 1.0 28 7119
+ 5.017388 0 1 tcp 1250 ------- 1 0.0 1.0 29 7121
+ 5.017988 0 1 tcp 1250 ------- 1 0.0 1.0 30 7123
+ 5.018588 0 1 tcp 1250 ------- 1 0.0 1.0 31 7124
+ 5.019187 0 1 tcp 1250 ------- 1 0.0 1.0 32 7126
+ 5.019787 0 1 tcp 1250 ------- 1 0.0 1.0 33 7127
+ 5.020386 0 1 tcp 1250 ------- 1 0.0 1.0 34 7129
+ 5.020986 0 1 tcp 1250 ------- 1 0.0 1.0 35 7131
+ 5.021586 0 1 tcp 1250 ------- 1 0.0 1.0 36 7132
+ 5.022185 0 1 tcp 1250 ------- 1 0.0 1.0 37 7134
+ 5.022785 0 1 tcp 1250 ------- 1 0.0 1.0 38 7135
+ 5.023384 0 1 tcp 1250 ------- 1 0.0 1.0 39 7137
+ 5.023984 0 1 tcp 1250 ------- 1 0.0 1.0 40 7139
+ 5.024584 0 1 tcp 1250 ------- 1 0.0 1.0 41 7140
+ 5.025183 0 1 tcp 1250 ------- 1 0.0 1.0 42 7142
+ 5.025783 0 1 tcp 1250 ------- 1 0.0 1.0 43 7143
+ 5.026382 0 1 tcp 1250 ------- 1 0.0 1.0 44 7145
+ 5.026982 0 1 tcp 1250 ------- 1 0.0 1.0 45 7147
+ 5.027582 0 1 tcp 1250 ------- 1 0.0 1.0 46 7148
+ 5.028181 0 1 tcp 1250 ------- 1 0.0 1.0 47 7150
+ 5.028781 0 1 tcp 1250 ------- 1 0.0 1.0 48 7151
+ 5.02938 0 1 tcp 1250 ------- 1 0.0 1.0 49 7153
+ 5.02998 0 1 tcp 1250 ------- 1 0.0 1.0 50 7155
+ 5.03058 0 1 tcp 1250 ------- 1 0.0 1.0 51 7156
+ 5.031179 0 1 tcp 1250 ------- 1 0.0 1.0 52 7158
+ 5.031779 0 1 tcp 1250 ------- 1 0.0 1.0 53 7159
+ 5.032378 0 1 tcp 1250 ------- 1 0.0 1.0 54 7161
+ 5.032978 0 1 tcp 1250 ------- 1 0.0 1.0 55 7163
+ 5.033578 0 1 tcp 1250 ------- 1 0.0 1.0 56 7164
+ 5.034177 0 1 tcp 1250 ------- 1 0.0 1.0 57 7166
+ 5.034777 0 1 tcp 1250 ------- 1 0.0 1.0 58 7167
+ 5.035376 0 1 tcp 1250 ------- 1 0.0 1.0 59 7169
+ 5.035976 0 1 tcp 1250 ------- 1 0.0 1.0 60 7171
+ 5.036576 0 1 tcp 1250 ------- 1 0.0 1.0 61 7172
+ 5.037175 0 1 tcp 1250 ------- 1 0.0 1.0 62 7174
+ 5.037775 0 1 tcp 1250 ------- 1 0.0 1.0 63 7175
+ 5.038374 0 1 tcp 1250 ------- 1 0.0 1.0 64 7177
+ 5.038974 0 1 tcp 1250 ------- 1 0.0 1.0 65 7179
+ 5.039574 0 1 tcp 1250 ------- 1 0.0 1.0 66 7180
+ 5.040173 0 1 tcp 1250 ------- 1 0.0 1.0 67 7182
+ 5.040773 0 1 tcp 1250 ------- 1 0.0 1.0 68 7183
+ 5.041372 0 1 tcp 1250 ------- 1 0.0 1.0 69 7185
+ 5.041972 0 1 tcp 1250 ------- 1 0.0 1.0 70 7187
+ 5.042572 0 1 tcp 1250 ------- 1 0.0 1.0 71 7188
+ 5.043171 0 1 tcp 1250 ------- 1 0.0 1.0 72 7190
+ 5.043771 0 1 tcp 1250 ------- 1 0.0 1.0 73 7191
+ 5.04437 0 1 tcp 1250 ------- 1 0.0 1.0 74 7193
+ 5.04497 0 1 tcp 1250 ------- 1 0.0 1.0 75 7195
+ 5.04557 0 1 tcp 1250 ------- 1 0.0 1.0 76 7196
+ 5.046169 0 1 tcp 1250 ------- 1 0.0 1.0 77 7198
+ 5.046769 0 1 tcp 1250 ------- 1 0.0 1.0 78 7199
+ 5.047368 0 1 tcp 1250 ------- 1 0.0 1.0 79 7201
+ 5.047968 0 1 tcp 1250 ------- 1 0.0 1.0 80 7203
+ 5.048568 0 1 tcp 1250 ------- 1 0.0 1.0 81 7204
+ 5.049167 0 1 tcp 1250 ------- 1 0.0 1.0 82 7206
+ 5.049767 0 1 tcp 1250 ------- 1 0.0 1.0 83 7207
+ 5.050366 0 1 tcp 1250 ------- 1 0.0 1.0 84 7209
+ 5.050966 0 1 tcp 1250 ------- 1 0.0 1.0 85 7211
+ 5.051566 0 1 tcp 1250 ------- 1 0.0 1.0 86 7212
+ 5.052165 0 1 tcp 1250 ------- 1 0.0 1.0 87 7214
+ 5.052765 0 1 tcp 1250 ------- 1 0.0 1.0 88 7215
+ 5.053364 0 1 tcp 1250 ------- 1 0.0 1.0 89 7217
+ 5.053964 0 1 tcp 1250 ------- 1 0.0 1.0 90 7219
+ 5.054564 0 1 tcp 1250 ------- 1 0.0 1.0 91 7220
+ 5.055163 0 1 tcp 1250 ------- 1 0.0 1.0 92 7222
+ 5.055763 0 1 tcp 1250 ------- 1 0.0 1.0 93 7223
+ 5.056362 0 1 tcp 1250 ------- 1 0.0 1.0 94 7225
+ 5.056962 0 1 tcp 1250 ------- 1 0.0 1.0 95 7227
+ 5.057562 0 1 tcp 1250 ------- 1 0.0 1.0 96 7228
+ 5.058161 0 1 tcp 1250 ------- 1 0.0 1.0 97 7230
+ 5.058761 0 1 tcp 1250 ------- 1 0.0 1.0 98 7231
+ 5.05936 0 1 tcp 1250 ------- 1 0.0 1.0 99 7233
+ 5.05996 0 1 tcp 1250 ------- 1 0.0 1.0 100 7235
+ 5.06056 0 1 tcp 1250 ------- 1 0.0 1.0 101 7236
+ 5.061159 0 1 tcp 1250 ------- 1 0.0 1.0 102 7238
+ 5.061759 0 1 tcp 1250 ------- 1 0.0 1.0 103 7239
+ 5.062358 0 1 tcp 1250 ------- 1 0.0 1.0 104 7241
+ 5.062958 0 1 tcp 1250 ------- 1 0.0 1.0 105 7243
+ 5.063558 0 1 tcp 1250 ------- 1 0.0 1.0 106 7244
+ 5.064157 0 1 tcp 1250 ------- 1 0.0 1.0 107 7246
+ 5.064757 0 1 tcp 1250 ------- 1 0.0 1.0 108 7247
+ 5.065356 0 1 tcp 1250 ------- 1 0.0 1.0 109 7249
+ 5.065956 0 1 tcp 1250 ------- 1 0.0 1.0 110 7251
+ 5.066556 0 1 tcp 1250 ------- 1 0.0 1.0 111 7252
+ 5.067155 0 1 tcp 1250 ------- 1 0.0 1.0 112 7254
+ 5.067755 0 1 tcp 1250 ------- 1 0.0 1.0 113 7255
+ 5.068354 0 1 tcp 1250 ------- 1 0.0 1.0 114 7257
+ 5.068954 0 1 tcp 1250 ------- 1 0.0 1.0 115 7259
+ 5.069554 0 1 tcp 1250 ------- 1 0.0 1.0 116 7260
+ 5.070153 0 1 tcp 1250 ------- 1 0.0 1.0 117 7262
+ 5.070753 0 1 tcp 1250 ------- 1 0.0 1.0 118 7263
+ 5.071352 0 1 tcp 1250 ------- 1 0.0 1.0 119 7265
+ 5.071952 0 1 tcp 1250 ------- 1 0.0 1.0 120 7267
+ 5.072552 0 1 tcp 1250 ------- 1 0.0 1.0 121 7268
+ 5.073151 0 1 tcp 1250 ------- 1 0.0 1.0 122 7270
+ 5.073751 0 1 tcp 1250 ------- 1 0.0 1.0 123 7271
+ 5.07435 0 1 tcp 1250 ------- 1 0.0 1.0 124 7273
+ 5.07495 0 1 tcp 1250 ------- 1 0.0 1.0 125 7275
+ 5.07555 0 1 tcp 1250 ------- 1 0.0 1.0 126 7276
+ 5.076149 0 1 tcp 1250 ------- 1 0.0 1.0 127 7278
+ 5.076749 0 1 tcp 1250 ------- 1 0.0 1.0 128 7279
+ 5.077348 0 1 tcp 1250 ------- 1 0.0 1.0 129 7281
+ 5.077948 0 1 tcp 1250 ------- 1 0.0 1.0 130 7283
+ 5.078548 0 1 tcp 1250 ------- 1 0.0 1.0 131 7284
+ 5.079147 0 1 tcp 1250 ------- 1 0.0 1.0 132 7286
+ 5.079747 0 1 tcp 1250 ------- 1 0.0 1.0 133 7287
+ 5.080346 0 1 tcp 1250 ------- 1 0.0 1.0 134 7289
+ 5.080946 0 1 tcp 1250 ------- 1 0.0 1.0 135 7291
+ 5.081546 0 1 tcp 1250 ------- 1 0.0 1.0 136 7292
+ 5.082145 0 1 tcp 1250 ------- 1 0.0 1.0 137 7294
+ 5.082745 0 1 tcp 1250 ------- 1 0.0 1.0 138 7295
+ 5.083344 0 1 tcp 1250 ------- 1 0.0 1.0 139 7297
+ 5.083944 0 1 tcp 1250 ------- 1 0.0 1.0 140 7299
+ 5.084544 0 1 tcp 1250 ------- 1 0.0 1.0 141 7300
+ 5.085143 0 1 tcp 1250 ------- 1 0.0 1.0 142 7302
+ 5.085743 0 1 tcp 1250 ------- 1 0.0 1.0 143 7303
+ 5.086342 0 1 tcp 1250 ------- 1 0.0 1.0 144 7305
+ 5.086942 0 1 tcp 1250 ------- 1 0.0 1.0 145 7307
+ 5.087542 0 1 tcp 1250 ------- 1 0.0 1.0 146 7308
+ 5.088141 0 1 tcp 1250 ------- 1 0.0 1.0 147 7310
+ 5.088741 0 1 tcp 1250 ------- 1 0.0 1.0 148 7311
+ 5.08934 0 1 tcp 1250 ------- 1 0.0 1.0 149 7313
+ 5.08994 0 1 tcp 1250 ------- 1 0.0 1.0 150 7315
+ 5.09054 0 1 tcp 1250 ------- 1 0.0 1.0 151 7316
+ 5.091139 0 1 tcp 1250 ------- 1 0.0 1.0 152 7318
+ 5.091739 0 1 tcp 1250 ------- 1 0.0 1.0 153 7319
+ 5.092338 0 1 tcp 1250 ------- 1 0.0 1.0 154 7321
+ 5.092938 0 1 tcp 1250 ------- 1 0.0 1.0 155 7323
+ 5.093538 0 1 tcp 1250 ------- 1 0.0 1.0 156 7324
+ 5.094137 0 1 tcp 1250 ------- 1 0.0 1.0 157 7326
+ 5.094737 0 1 tcp 1250 ------- 1 0.0 1.0 158 7327
+ 5.095336 0 1 tcp 1250 ------- 1 0.0 1.0 159 7329
+ 5.095936 0 1 tcp 1250 ------- 1 0.0 1.0 160 7331
+ 5.096536 0 1 tcp 1250 ------- 1 0.0 1.0 161 7332
+ 5.097135 0 1 tcp 1250 ------- 1 0.0 1.0 162 7334
+ 5.097735 0 1 tcp 1250 ------- 1 0.0 1.0 163 7335
+ 5.098334 0 1 tcp 1250 ------- 1 0.0 1.0 164 7337
+ 5.098934 0 1 tcp 1250 ------- 1 0.0 1.0 165 7339
+ 5.162941 0 1 tcp 1250 ------- 1 0.0 1.0 166 7404
+ 5.16354 0 1 tcp 1250 ------- 1 0.0 1.0 167 7405
+ 5.16414 0 1 tcp 1250 ------- 1 0.0 1.0 168 7407
+ 5.16474 0 1 tcp 1250 ------- 1 0.0 1.0 169 7408
+ 5.165339 0 1 tcp 1250 ------- 1 0.0 1.0 170 7410
+ 5.165939 0 1 tcp 1250 ------- 1 0.0 1.0 171 7412
+ 5.166538 0 1 tcp 1250 ------- 1 0.0 1.0 172 7413
+ 5.167138 0 1 tcp 1250 ------- 1 0.0 1.0 173 7415
+ 5.167738 0 1 tcp 1250 ------- 1 0.0 1.0 174 7416
+ 5.168337 0 1 tcp 1250 ------- 1 0.0 1.0 175 7418
+ 5.168937 0 1 tcp 1250 ------- 1 0.0 1.0 176 7420
+ 5.169536 0 1 tcp 1250 ------- 1 0.0 1.0 177 7421
+ 5.170136 0 1 tcp 1250 ------- 1 0.0 1.0 178 7423
+ 5.170736 0 1 tcp 1250 ------- 1 0.0 1.0 179 7424
+ 5.171335 0 1 tcp 1250 ------- 1 0.0 1.0 180 7426
+ 5.171935 0 1 tcp 1250 ------- 1 0.0 1.0 181 7428
+ 5.172534 0 1 tcp 1250 ------- 1 0.0 1.0 182 7429
+ 5.173134 0 1 tcp 1250 ------- 1 0.0 1.0 183 7431
+ 5.173734 0 1 tcp 1250 ------- 1 0.0 1.0 184 7432
+ 5.174333 0 1 tcp 1250 ------- 1 0.0 1.0 185 7434
+ 5.174933 0 1 tcp 1250 ------- 1 0.0 1.0 186 7436
+ 5.175532 0 1 tcp 1250 ------- 1 0.0 1.0 187 7437
+ 5.176132 0 1 tcp 1250 ------- 1 0.0 1.0 188 7439
+ 5.176732 0 1 tcp 1250 ------- 1 0.0 1.0 189 7440
+ 5.177331 0 1 tcp 1250 ------- 1 0.0 1.0 190 7442
+ 5.177931 0 1 tcp 1250 ------- 1 0.0 1.0 191 7444
+ 5.17853 0 1 tcp 1250 ------- 1 0.0 1.0 192 7445
+ 5.17913 0 1 tcp 1250 ------- 1 0.0 1.0 193 7447
+ 5.17973 0 1 tcp 1250 ------- 1 0.0 1.0 194 7448
+ 5.180329 0 1 tcp 1250 ------- 1 0.0 1.0 195 7450
+ 5.180929 0 1 tcp 1250 ------- 1 0.0 1.0 196 7452
+ 5.181528 0 1 tcp 1250 ------- 1 0.0 1.0 197 7453
+ 5.182128 0 1 tcp 1250 ------- 1 0.0 1.0 198 7455
+ 5.182728 0 1 tcp 1250 ------- 1 0.0 1.0 199 7456
+ 5.183327 0 1 tcp 1250 ------- 1 0.0 1.0 200 7458
+ 5.183927 0 1 tcp 1250 ------- 1 0.0 1.0 201 7460
+ 5.184526 0 1 tcp 1250 ------- 1 0.0 1.0 202 7461
+ 5.185126 0 1 tcp 1250 ------- 1 0.0 1.0 203 7463
+ 5.185726 0 1 tcp 1250 ------- 1 0.0 1.0 204 7464
+ 5.186325 0 1 tcp 1250 ------- 1 0.0 1.0 205 7466
+ 5.186925 0 1 tcp 1250 ------- 1 0.0 1.0 206 7468
+ 5.187524 0 1 tcp 1250 ------- 1 0.0 1.0 207 7469
+ 5.188124 0 1 tcp 1250 ------- 1 0.0 1.0 208 7471
+ 5.188724 0 1 tcp 1250 ------- 1 0.0 1.0 209 7472
+ 5.189323 0 1 tcp 1250 ------- 1 0.0 1.0 210 7474
+ 5.189923 0 1 tcp 1250 ------- 1 0.0 1.0 211 7476
+ 5.253941 0 1 tcp 1250 ------- 1 0.0 1.0 212 7541
+ 5.254941 0 1 tcp 1250 ------- 1 0.0 1.0 213 7543
+ 5.255941 0 1 tcp 1250 ------- 1 0.0 1.0 214 7545
+ 5.256941 0 1 tcp 1250 ------- 1 0.0 1.0 215 7547
+ 5.257941 0 1 tcp 1250 ------- 1 0.0 1.0 216 7549
+ 5.258941 0 1 tcp 1250 ------- 1 0.0 1.0 217 7551
+ 5.259941 0 1 tcp 1250 ------- 1 0.0 1.0 218 7553
+ 5.260941 0 1 tcp 1250 ------- 1 0.0 1.0 219 7555
+ 5.261941 0 1 tcp 1250 ------- 1 0.0 1.0 220 7557
+ 5.262941 0 1 tcp 1250 ------- 1 0.0 1.0 221 7559
+ 5.263941 0 1 tcp 1250 ------- 1 0.0 1.0 222 7561
+ 5.264941 0 1 tcp 1250 ------- 1 0.0 1.0 223 7563
+ 5.265941 0 1 tcp 1250 ------- 1 0.0 1.0 224 7565
+ 5.266941 0 1 tcp 1250 ------- 1 0.0 1.0 225 7567
+ 5.267941 0 1 tcp 1250 ------- 1 0.0 1.0 226 7569
+ 5.268941 0 1 tcp 1250 ------- 1 0.0 1.0 227 7571
+ 5.269941 0 1 tcp 1250 ------- 1 0.0 1.0 228 7573
+ 5.270941 0 1 tcp 1250 ------- 1 0.0 1.0 229 7575
+ 5.271941 0 1 tcp 1250 ------- 1 0.0 1.0 230 7577
+ 5.272941 0 1 tcp 1250 ------- 1 0.0 1.0 231 7579
+ 5.273941 0 1 tcp 1250 ------- 1 0.0 1.0 232 7581
+ 5.274941 0 1 tcp 1250 ------- 1 0.0 1.0 233 7583
+ 5.275941 0 1 tcp 1250 ------- 1 0.0 1.0 234 7585
+ 5.276941 0 1 tcp 1250 ------- 1 0.0 1.0 235 7587
+ 5.277941 0 1 tcp 1250 ------- 1 0.0 1.0 236 7589
+ 5.278941 0 1 tcp 1250 ------- 1 0.0 1.0 237 7591
+ 5.279941 0 1 tcp 1250 ------- 1 0.0 1.0 238 7593
+ 5.280941 0 1 tcp 1250 ------- 1 0.0 1.0 239 7595
+ 5.281941 0 1 tcp 1250 ------- 1 0.0 1.0 240 7597
+ 5.282941 0 1 tcp 1250 ------- 1 0.0 1.0 241 7599
+ 5.283941 0 1 tcp 1250 ------- 1 0.0 1.0 242 7601
+ 5.284941 0 1 tcp 1250 ------- 1 0.0 1.0 243 7603
+ 5.285941 0 1 tcp 1250 ------- 1 0.0 1.0 244 7605
+ 5.286941 0 1 tcp 1250 ------- 1 0.0 1.0 245 7607
+ 5.287941 0 1 tcp 1250 ------- 1 0.0 1.0 246 7609
+ 5.288941 0 1 tcp 1250 ------- 1 0.0 1.0 247 7611
+ 5.289941 0 1 tcp 1250 ------- 1 0.0 1.0 248 7613
+ 5.290941 0 1 tcp 1250 ------- 1 0.0 1.0 249 7615
+ 5.291941 0 1 tcp 1250 ------- 1 0.0 1.0 250 7617
+ 5.292941 0 1 tcp 1250 ------- 1 0.0 1.0 251 7619
+ 5.293941 0 1 tcp 1250 ------- 1 0.0 1.0 252 7621
+ 5.294941 0 1 tcp 1250 ------- 1 0.0 1.0 253 7623
+ 5.295941 0 1 tcp 1250 ------- 1 0.0 1.0 254 7625
+ 5.296941 0 1 tcp 1250 ------- 1 0.0 1.0 255 7627
+ 5.297941 0 1 tcp 1250 ------- 1 0.0 1.0 256 7629
+ 5.298941 0 1 tcp 1250 ------- 1 0.0 1.0 257 7631
+ 5.299941 0 1 tcp 1250 ------- 1 0.0 1.0 258 7633
+ 5.300941 0 1 tcp 1250 ------- 1 0.0 1.0 259 7635
+ 5.301941 0 1 tcp 1250 ------- 1 0.0 1.0 260 7637
+ 5.302941 0 1 tcp 1250 ------- 1 0.0 1.0 261 7639
+ 5.303941 0 1 tcp 1250 ------- 1 0.0 1.0 262 7641
+ 5.304941 0 1 tcp 1250 ------- 1 0.0 1.0 263 7643
+ 5.305941 0 1 tcp 1250 ------- 1 0.0 1.0 264 7645
+ 5.306941 0 1 tcp 1250 ------- 1 0.0 1.0 265 7647
+ 5.307941 0 1 tcp 1250 ------- 1 0.0 1.0 266 7649
+ 5.308941 0 1 tcp 1250 ------- 1 0.0 1.0 267 7651
+ 5.309941 0 1 tcp 1250 ------- 1 0.0 1.0 268 7653
+ 5.310941 0 1 tcp 1250 ------- 1 0.0 1.0 269 7655
+ 5.311941 0 1 tcp 1250 ------- 1 0.0 1.0 270 7657
+ 5.312941 0 1 tcp 1250 ------- 1 0.0 1.0 271 7659
+ 5.313941 0 1 tcp 1250 ------- 1 0.0 1.0 272 7661
+ 5.314941 0 1 tcp 1250 ------- 1 0.0 1.0 273 7663
+ 5.315941 0 1 tcp 1250 ------- 1 0.0 1.0 274 7665
+ 5.316941 0 1 tcp 1250 ------- 1 0.0 1.0 275 7667
+ 5.317941 0 1 tcp 1250 ------- 1 0.0 1.0 276 7669
+ 5.318941 0 1 tcp 1250 ------- 1 0.0 1.0 277 7671
+ 5.319941 0 1 tcp 1250 ------- 1 0.0 1.0 278 7673
+ 5.320941 0 1 tcp 1250 ------- 1 0.0 1.0 279 7675
+ 5.321941 0 1 tcp 1250 ------- 1 0.0 1.0 280 7677
+ 5.322941 0 1 tcp 1250 ------- 1 0.0 1.0 281 7679
+ 5.323941 0 1 tcp 1250 ------- 1 0.0 1.0 282 7681
+ 5.324941 0 1 tcp 1250 ------- 1 0.0 1.0 283 7683
+ 5.325941 0 1 tcp 1250 ------- 1 0.0 1.0 284 7685
+ 5.326941 0 1 tcp 1250 ------- 1 0.0 1.0 285 7687
+ 5.327941 0 1 tcp 1250 ------- 1 0.0 1.0 286 7689
+ 5.328941 0 1 tcp 1250 ------- 1 0.0 1.0 287 7691
+ 5.329491 0 1 tcp 1250 ------- 1 0.0 1.0 288 7692
+ 5.33004 0 1 tcp 1250 ------- 1 0.0 1.0 289 7694
+ 5.33059 0 1 tcp 1250 ------- 1 0.0 1.0 290 7695
+ 5.33114 0 1 tcp 1250 ------- 1 0.0 1.0 291 7697
+ 5.33169 0 1 tcp 1250 ------- 1 0.0 1.0 292 7698
+ 5.33224 0 1 tcp 1250 ------- 1 0.0 1.0 293 7700
+ 5.332789 0 1 tcp 1250 ------- 1 0.0 1.0 294 7701
+ 5.333339 0 1 tcp 1250 ------- 1 0.0 1.0 295 7703
+ 5.333889 0 1 tcp 1250 ------- 1 0.0 1.0 296 7704
+ 5.334439 0 1 tcp 1250 ------- 1 0.0 1.0 297 7706
+ 5.334989 0 1 tcp 1250 ------- 1 0.0 1.0 298 7708
+ 5.335538 0 1 tcp 1250 ------- 1 0.0 1.0 299 7709
+ 5.336088 0 1 tcp 1250 ------- 1 0.0 1.0 300 7711
+ 5.336638 0 1 tcp 1250 ------- 1 0.0 1.0 301 7712
+ 5.337188 0 1 tcp 1250 ------- 1 0.0 1.0 302 7714
+ 5.337738 0 1 tcp 1250 ------- 1 0.0 1.0 303 7715
+ 5.338287 0 1 tcp 1250 ------- 1 0.0 1.0 304 7717
+ 5.338837 0 1 tcp 1250 ------- 1 0.0 1.0 305 7718
+ 5.339387 0 1 tcp 1250 ------- 1 0.0 1.0 306 7720
+ 5.339937 0 1 tcp 1250 ------- 1 0.0 1.0 307 7722
+ 5.340487 0 1 tcp 1250 ------- 1 0.0 1.0 308 7723
+ 5.341036 0 1 tcp 1250 ------- 1 0.0 1.0 309 7725
+ 5.341586 0 1 tcp 1250 ------- 1 0.0 1.0 310 7726
+ 5.342136 0 1 tcp 1250 ------- 1 0.0 1.0 311 7728
+ 5.342686 0 1 tcp 1250 ------- 1 0.0 1.0 312 7729
+ 5.343236 0 1 tcp 1250 ------- 1 0.0 1.0 313 7731
+ 5.343785 0 1 tcp 1250 ------- 1 0.0 1.0 314 7732
+ 5.344335 0 1 tcp 1250 ------- 1 0.0 1.0 315 7734
+ 5.344885 0 1 tcp 1250 ------- 1 0.0 1.0 316 7735
+ 5.345435 0 1 tcp 1250 ------- 1 0.0 1.0 317 7737
+ 5.345985 0 1 tcp 1250 ------- 1 0.0 1.0 318 7739
+ 5.346534 0 1 tcp 1250 ------- 1 0.0 1.0 319 7740
+ 5.347084 0 1 tcp 1250 ------- 1 0.0 1.0 320 7742
+ 5.347634 0 1 tcp 1250 ------- 1 0.0 1.0 321 7743
+ 5.348534 0 1 tcp 1250 ------- 1 0.0 1.0 322 7745
+ 5.349034 0 1 tcp 1250 ------- 1 0.0 1.0 323 7747
+ 5.349533 0 1 tcp 1250 ------- 1 0.0 1.0 324 7748
+ 5.350033 0 1 tcp 1250 ------- 1 0.0 1.0 325 7750
+ 5.350533 0 1 tcp 1250 ------- 1 0.0 1.0 326 7751
+ 5.351033 0 1 tcp 1250 ------- 1 0.0 1.0 327 7753
+ 5.351533 0 1 tcp 1250 ------- 1 0.0 1.0 328 7754
+ 5.370941 0 1 tcp 1250 ------- 1 0.0 1.0 329 7775
+ 5.371941 0 1 tcp 1250 ------- 1 0.0 1.0 330 7777
+ 5.372941 0 1 tcp 1250 ------- 1 0.0 1.0 331 7779
+ 5.373941 0 1 tcp 1250 ------- 1 0.0 1.0 332 7781
+ 5.374941 0 1 tcp 1250 ------- 1 0.0 1.0 333 7783
+ 5.375491 0 1 tcp 1250 ------- 1 0.0 1.0 334 7784
+ 5.37604 0 1 tcp 1250 ------- 1 0.0 1.0 335 7786
+ 5.37659 0 1 tcp 1250 ------- 1 0.0 1.0 336 7787
+ 5.37714 0 1 tcp 1250 ------- 1 0.0 1.0 337 7789
+ 5.37769 0 1 tcp 1250 ------- 1 0.0 1.0 338 7790
+ 5.37824 0 1 tcp 1250 ------- 1 0.0 1.0 339 7792
+ 5.378789 0 1 tcp 1250 ------- 1 0.0 1.0 340 7793
+ 5.379339 0 1 tcp 1250 ------- 1 0.0 1.0 341 7795
+ 5.379889 0 1 tcp 1250 ------- 1 0.0 1.0 342 7796
+ 5.380439 0 1 tcp 1250 ------- 1 0.0 1.0 343 7798
+ 5.380989 0 1 tcp 1250 ------- 1 0.0 1.0 344 7800
+ 5.381538 0 1 tcp 1250 ------- 1 0.0 1.0 345 7801
+ 5.382088 0 1 tcp 1250 ------- 1 0.0 1.0 346 7803
+ 5.382638 0 1 tcp 1250 ------- 1 0.0 1.0 347 7804
+ 5.383188 0 1 tcp 1250 ------- 1 0.0 1.0 348 7806
+ 5.383738 0 1 tcp 1250 ------- 1 0.0 1.0 349 7807
+ 5.384287 0 1 tcp 1250 ------- 1 0.0 1.0 350 7809
+ 5.384837 0 1 tcp 1250 ------- 1 0.0 1.0 351 7810
+ 5.385387 0 1 tcp 1250 ------- 1 0.0 1.0 352 7812
+ 5.385937 0 1 tcp 1250 ------- 1 0.0 1.0 353 7814
+ 5.386487 0 1 tcp 1250 ------- 1 0.0 1.0 354 7815
+ 5.387036 0 1 tcp 1250 ------- 1 0.0 1.0 355 7817
+ 5.387586 0 1 tcp 1250 ------- 1 0.0 1.0 356 7818
+ 5.388136 0 1 tcp 1250 ------- 1 0.0 1.0 357 7820
+ 5.388686 0 1 tcp 1250 ------- 1 0.0 1.0 358 7821
+ 5.389236 0 1 tcp 1250 ------- 1 0.0 1.0 359 7823
+ 5.389785 0 1 tcp 1250 ------- 1 0.0 1.0 360 7824
+ 5.390335 0 1 tcp 1250 ------- 1 0.0 1.0 361 7826
+ 5.390885 0 1 tcp 1250 ------- 1 0.0 1.0 362 7827
+ 5.391435 0 1 tcp 1250 ------- 1 0.0 1.0 363 7829
+ 5.391985 0 1 tcp 1250 ------- 1 0.0 1.0 364 7831
+ 5.392534 0 1 tcp 1250 ------- 1 0.0 1.0 365 7832
+ 5.393084 0 1 tcp 1250 ------- 1 0.0 1.0 366 7834
+ 5.393634 0 1 tcp 1250 ------- 1 0.0 1.0 367 7835
+ 5.394184 0 1 tcp 1250 ------- 1 0.0 1.0 368 7837
+ 5.394734 0 1 tcp 1250 ------- 1 0.0 1.0 369 7838
+ 5.395283 0 1 tcp 1250 ------- 1 0.0 1.0 370 7840
+ 5.395833 0 1 tcp 1250 ------- 1 0.0 1.0 371 7841
+ 5.396383 0 1 tcp 1250 ------- 1 0.0 1.0 372 7843
+ 5.396933 0 1 tcp 1250 ------- 1 0.0 1.0 373 7845
+ 5.397483 0 1 tcp 1250 ------- 1 0.0 1.0 374 7846
+ 5.398032 0 1 tcp 1250 ------- 1 0.0 1.0 375 7848
+ 5.398582 0 1 tcp 1250 ------- 1 0.0 1.0 376 7849
+ 5.399132 0 1 tcp 1250 ------- 1 0.0 1.0 377 7851
+ 5.399682 0 1 tcp 1250 ------- 1 0.0 1.0 378 7852
+ 5.400232 0 1 tcp 1250 ------- 1 0.0 1.0 379 7854
+ 5.400781 0 1 tcp 1250 ------- 1 0.0 1.0 380 7855
+ 5.401331 0 1 tcp 1250 ------- 1 0.0 1.0 381 7857
+ 5.401881 0 1 tcp 1250 ------- 1 0.0 1.0 382 7858
+ 5.402481 0 1 tcp 1250 ------- 1 0.0 1.0 383 7860
+ 5.40308 0 1 tcp 1250 ------- 1 0.0 1.0 384 7862
+ 5.40368 0 1 tcp 1250 ------- 1 0.0 1.0 385 7863
+ 5.404279 0 1 tcp 1250 ------- 1 0.0 1.0 386 7865
+ 5.404879 0 1 tcp 1250 ------- 1 0.0 1.0 387 7866
+ 5.405479 0 1 tcp 1250 ------- 1 0.0 1.0 388 7868
+ 5.406078 0 1 tcp 1250 ------- 1 0.0 1.0 389 7870
+ 5.406678 0 1 tcp 1250 ------- 1 0.0 1.0 390 7871
+ 5.407277 0 1 tcp 1250 ------- 1 0.0 1.0 391 7873
+ 5.407877 0 1 tcp 1250 ------- 1 0.0 1.0 392 7874
+ 5.408477 0 1 tcp 1250 ------- 1 0.0 1.0 393 7876
+ 5.409076 0 1 tcp 1250 ------- 1 0.0 1.0 394 7878
+ 5.409676 0 1 tcp 1250 ------- 1 0.0 1.0 395 7879
+ 5.410275 0 1 tcp 1250 ------- 1 0.0 1.0 396 7881
+ 5.410875 0 1 tcp 1250 ------- 1 0.0 1.0 397 7882
+ 5.411475 0 1 tcp 1250 ------- 1 0.0 1.0 398 7884
+ 5.412074 0 1 tcp 1250 ------- 1 0.0 1.0 399 7886
+ 5.412674 0 1 tcp 1250 ------- 1 0.0 1.0 400 7887
+ 5.413273 0 1 tcp 1250 ------- 1 0.0 1.0 401 7889
+ 5.413873 0 1 tcp 1250 ------- 1 0.0 1.0 402 7890
+ 5.414473 0 1 tcp 1250 ------- 1 0.0 1.0 403 7892
+ 5.415072 0 1 tcp 1250 ------- 1 0.0 1.0 404 7894
+ 5.415672 0 1 tcp 1250 ------- 1 0.0 1.0 405 7895
+ 5.416271 0 1 tcp 1250 ------- 1 0.0 1.0 406 7897
+ 5.416871 0 1 tcp 1250 ------- 1 0.0 1.0 407 7898
+ 5.417471 0 1 tcp 1250 ------- 1 0.0 1.0 408 7900
+ 5.41807 0 1 tcp 1250 ------- 1 0.0 1.0 409 7902
+ 5.41867 0 1 tcp 1250 ------- 1 0.0 1.0 410 7903
+ 5.419269 0 1 tcp 1250 ------- 1 0.0 1.0 411 7905
+ 5.419869 0 1 tcp 1250 ------- 1 0.0 1.0 412 7906
+ 5.420469 0 1 tcp 1250 ------- 1 0.0 1.0 413 7908
+ 5.421068 0 1 tcp 1250 ------- 1 0.0 1.0 414 7910
+ 5.421668 0 1 tcp 1250 ------- 1 0.0 1.0 415 7911
+ 5.422267 0 1 tcp 1250 ------- 1 0.0 1.0 416 7913
+ 5.422867 0 1 tcp 1250 ------- 1 0.0 1.0 417 7914
+ 5.423467 0 1 tcp 1250 ------- 1 0.0 1.0 418 7916
+ 5.424066 0 1 tcp 1250 ------- 1 0.0 1.0 419 7918
+ 5.424666 0 1 tcp 1250 ------- 1 0.0 1.0 420 7919
+ 5.425265 0 1 tcp 1250 ------- 1 0.0 1.0 421 7921
+ 5.425865 0 1 tcp 1250 ------- 1 0.0 1.0 422 7922
+ 5.426465 0 1 tcp 1250 ------- 1 0.0 1.0 423 7924
+ 5.427064 0 1 tcp 1250 ------- 1 0.0 1.0 424 7926
+ 5.427664 0 1 tcp 1250 ------- 1 0.0 1.0 425 7927
+ 5.428263 0 1 tcp 1250 ------- 1 0.0 1.0 426 7929
+ 5.428863 0 1 tcp 1250 ------- 1 0.0 1.0 427 7930
+ 5.429463 0 1 tcp 1250 ------- 1 0.0 1.0 428 7932
+ 5.430062 0 1 tcp 1250 ------- 1 0.0 1.0 429 7934
+ 5.430662 0 1 tcp 1250 ------- 1 0.0 1.0 430 7935
+ 5.431261 0 1 tcp 1250 ------- 1 0.0 1.0 431 7937
+ 5.431861 0 1 tcp 1250 ------- 1 0.0 1.0 432 7938
+ 5.432461 0 1 tcp 1250 ------- 1 0.0 1.0 433 7940
+ 5.43306 0 1 tcp 1250 ------- 1 0.0 1.0 434 7942
+ 5.43366 0 1 tcp 1250 ------- 1 0.0 1.0 435 7943
+ 5.434259 0 1 tcp 1250 ------- 1 0.0 1.0 436 7945
+ 5.434859 0 1 tcp 1250 ------- 1 0.0 1.0 437 7946
+ 5.435459 0 1 tcp 1250 ------- 1 0.0 1.0 438 7948
+ 5.436058 0 1 tcp 1250 ------- 1 0.0 1.0 439 7950
+ 5.436658 0 1 tcp 1250 ------- 1 0.0 1.0 440 7951
+ 5.437257 0 1 tcp 1250 ------- 1 0.0 1.0 441 7953
+ 5.437857 0 1 tcp 1250 ------- 1 0.0 1.0 442 7954
+ 5.438457 0 1 tcp 1250 ------- 1 0.0 1.0 443 7956
+ 5.439056 0 1 tcp 1250 ------- 1 0.0 1.0 444 7958
+ 5.439656 0 1 tcp 1250 ------- 1 0.0 1.0 445 7959
+ 5.440255 0 1 tcp 1250 ------- 1 0.0 1.0 446 7961
+ 5.440855 0 1 tcp 1250 ------- 1 0.0 1.0 447 7962
+ 5.441455 0 1 tcp 1250 ------- 1 0.0 1.0 448 7964
+ 5.442054 0 1 tcp 1250 ------- 1 0.0 1.0 449 7966
+ 5.442654 0 1 tcp 1250 ------- 1 0.0 1.0 450 7967
+ 5.443253 0 1 tcp 1250 ------- 1 0.0 1.0 451 7969
+ 5.443853 0 1 tcp 1250 ------- 1 0.0 1.0 452 7970
+ 5.444453 0 1 tcp 1250 ------- 1 0.0 1.0 453 7972
+ 5.445052 0 1 tcp 1250 ------- 1 0.0 1.0 454 7974
+ 5.445652 0 1 tcp 1250 ------- 1 0.0 1.0 455 7975
+ 5.446251 0 1 tcp 1250 ------- 1 0.0 1.0 456 7977
+ 5.446851 0 1 tcp 1250 ------- 1 0.0 1.0 457 7978
+ 5.447451 0 1 tcp 1250 ------- 1 0.0 1.0 458 7980
+ 5.44805 0 1 tcp 1250 ------- 1 0.0 1.0 459 7982
+ 5.44865 0 1 tcp 1250 ------- 1 0.0 1.0 460 7983
+ 5.449249 0 1 tcp 1250 ------- 1 0.0 1.0 461 7985
+ 5.449849 0 1 tcp 1250 ------- 1 0.0 1.0 462 7986
+ 5.450449 0 1 tcp 1250 ------- 1 0.0 1.0 463 7988
+ 5.451048 0 1 tcp 1250 ------- 1 0.0 1.0 464 7990
+ 5.451648 0 1 tcp 1250 ------- 1 0.0 1.0 465 7991
+ 5.452247 0 1 tcp 1250 ------- 1 0.0 1.0 466 7993
+ 5.452847 0 1 tcp 1250 ------- 1 0.0 1.0 467 7994
+ 5.453447 0 1 tcp 1250 ------- 1 0.0 1.0 468 7996
+ 5.454046 0 1 tcp 1250 ------- 1 0.0 1.0 469 7998
+ 5.454646 0 1 tcp 1250 ------- 1 0.0 1.0 470 7999
+ 5.455245 0 1 tcp 1250 ------- 1 0.0 1.0 471 8001
+ 5.455845 0 1 tcp 1250 ------- 1 0.0 1.0 472 8002
+ 5.456445 0 1 tcp 1250 ------- 1 0.0 1.0 473 8004
+ 5.457044 0 1 tcp 1250 ------- 1 0.0 1.0 474 8006
+ 5.457644 0 1 tcp 1250 ------- 1 0.0 1.0 475 8007
+ 5.458243 0 1 tcp 1250 ------- 1 0.0 1.0 476 8009
+ 5.458843 0 1 tcp 1250 ------- 1 0.0 1.0 477 8010
+ 5.459443 0 1 tcp 1250 ------- 1 0.0 1.0 478 8012
+ 5.460042 0 1 tcp 1250 ------- 1 0.0 1.0 479 8014
+ 5.460642 0 1 tcp 1250 ------- 1 0.0 1.0 480 8015
+ 5.461241 0 1 tcp 1250 ------- 1 0.0 1.0 481 8017
+ 5.461841 0 1 tcp 1250 ------- 1 0.0 1.0 482 8018
+ 5.462441 0 1 tcp 1250 ------- 1 0.0 1.0 483 8020
+ 5.46304 0 1 tcp 1250 ------- 1 0.0 1.0 484 8022
+ 5.46364 0 1 tcp 1250 ------- 1 0.0 1.0 485 8023
+ 5.464239 0 1 tcp 1250 ------- 1 0.0 1.0 486 8025
+ 5.464839 0 1 tcp 1250 ------- 1 0.0 1.0 487 8026
+ 5.465439 0 1 tcp 1250 ------- 1 0.0 1.0 488 8028
+ 5.466038 0 1 tcp 1250 ------- 1 0.0 1.0 489 8030
+ 5.466638 0 1 tcp 1250 ------- 1 0.0 1.0 490 8031
+ 5.467237 0 1 tcp 1250 ------- 1 0.0 1.0 491 8033
+ 5.467837 0 1 tcp 1250 ------- 1 0.0 1.0 492 8034
+ 5.502941 0 1 tcp 1250 ------- 1 0.0 1.0 493 8071
+ 5.50354 0 1 tcp 1250 ------- 1 0.0 1.0 494 8072
+ 5.50414 0 1 tcp 1250 ------- 1 0.0 1.0 495 8074
+ 5.50474 0 1 tcp 1250 ------- 1 0.0 1.0 496 8075
+ 5.505339 0 1 tcp 1250 ------- 1 0.0 1.0 497 8077
+ 5.505939 0 1 tcp 1250 ------- 1 0.0 1.0 498 8079
+ 5.506538 0 1 tcp 1250 ------- 1 0.0 1.0 499 8080
+ 5.507138 0 1 tcp 1250 ------- 1 0.0 1.0 500 8082
+ 5.507738 0 1 tcp 1250 ------- 1 0.0 1.0 501 8083
+ 5.508337 0 1 tcp 1250 ------- 1 0.0 1.0 502 8085
+ 5.508937 0 1 tcp 1250 ------- 1 0.0 1.0 503 8087
+ 5.509536 0 1 tcp 1250 ------- 1 0.0 1.0 504 8088
+ 5.510136 0 1 tcp 1250 ------- 1 0.0 1.0 505 8090
+ 5.510736 0 1 tcp 1250 ------- 1 0.0 1.0 506 8091
+ 5.511335 0 1 tcp 1250 ------- 1 0.0 1.0 507 8093
+ 5.511935 0 1 tcp 1250 ------- 1 0.0 1.0 508 8095
+ 5.512534 0 1 tcp 1250 ------- 1 0.0 1.0 509 8096
+ 5.513134 0 1 tcp 1250 ------- 1 0.0 1.0 510 8098
+ 5.513734 0 1 tcp 1250 ------- 1 0.0 1.0 511 8099
+ 5.553941 0 1 tcp 1250 ------- 1 0.0 1.0 512 8141
+ 5.554941 0 1 tcp 1250 ------- 1 0.0 1.0 513 8143
+ 5.555941 0 1 tcp 1250 ------- 1 0.0 1.0 514 8145
+ 5.556941 0 1 tcp 1250 ------- 1 0.0 1.0 515 8147
+ 5.557941 0 1 tcp 1250 ------- 1 0.0 1.0 516 8149
+ 5.558941 0 1 tcp 1250 ------- 1 0.0 1.0 517 8151
+ 5.559941 0 1 tcp 1250 ------- 1 0.0 1.0 518 8153
+ 5.560941 0 1 tcp 1250 ------- 1 0.0 1.0 519 8155
+ 5.561941 0 1 tcp 1250 ------- 1 0.0 1.0 520 8157
+ 5.562941 0 1 tcp 1250 ------- 1 0.0 1.0 521 8159
+ 5.563941 0 1 tcp 1250 ------- 1 0.0 1.0 522 8161
+ 5.564941 0 1 tcp 1250 ------- 1 0.0 1.0 523 8163
+ 5.565941 0 1 tcp 1250 ------- 1 0.0 1.0 524 8165
+ 5.566941 0 1 tcp 1250 ------- 1 0.0 1.0 525 8167
+ 5.567941 0 1 tcp 1250 ------- 1 0.0 1.0 526 8169
+ 5.568941 0 1 tcp 1250 ------- 1 0.0 1.0 527 8171
+ 5.569941 0 1 tcp 1250 ------- 1 0.0 1.0 528 8173
+ 5.570941 0 1 tcp 1250 ------- 1 0.0 1.0 529 8175
+ 5.571941 0 1 tcp 1250 ------- 1 0.0 1.0 530 8177
+ 5.572941 0 1 tcp 1250 ------- 1 0.0 1.0 531 8179
+ 5.573941 0 1 tcp 1250 ------- 1 0.0 1.0 532 8181
+ 5.574941 0 1 tcp 1250 ------- 1 0.0 1.0 533 8183
+ 5.575941 0 1 tcp 1250 ------- 1 0.0 1.0 534 8185
+ 5.576941 0 1 tcp 1250 ------- 1 0.0 1.0 535 8187
+ 5.577941 0 1 tcp 1250 ------- 1 0.0 1.0 536 8189
+ 5.578941 0 1 tcp 1250 ------- 1 0.0 1.0 537 8191
+ 5.579941 0 1 tcp 1250 ------- 1 0.0 1.0 538 8193
+ 5.580941 0 1 tcp 1250 ------- 1 0.0 1.0 539 8195
+ 5.581941 0 1 tcp 1250 ------- 1 0.0 1.0 540 8197
+ 5.582941 0 1 tcp 1250 ------- 1 0.0 1.0 541 8199
+ 5.583941 0 1 tcp 1250 ------- 1 0.0 1.0 542 8201
+ 5.584941 0 1 tcp 1250 ------- 1 0.0 1.0 543 8203
+ 5.585941 0 1 tcp 1250 ------- 1 0.0 1.0 544 8205
+ 5.586941 0 1 tcp 1250 ------- 1 0.0 1.0 545 8207
+ 5.587941 0 1 tcp 1250 ------- 1 0.0 1.0 546 8209
+ 5.588941 0 1 tcp 1250 ------- 1 0.0 1.0 547 8211
+ 5.589941 0 1 tcp 1250 ------- 1 0.0 1.0 548 8213
+ 5.590941 0 1 tcp 1250 ------- 1 0.0 1.0 549 8215
+ 5.591941 0 1 tcp 1250 ------- 1 0.0 1.0 550 8217
+ 5.592941 0 1 tcp 1250 ------- 1 0.0 1.0 551 8219
+ 5.593941 0 1 tcp 1250 ------- 1 0.0 1.0 552 8221
+ 5.594941 0 1 tcp 1250 ------- 1 0.0 1.0 553 8223
+ 5.595941 0 1 tcp 1250 ------- 1 0.0 1.0 554 8225
+ 5.596941 0 1 tcp 1250 ------- 1 0.0 1.0 555 8227
+ 5.597941 0 1 tcp 1250 ------- 1 0.0 1.0 556 8229
+ 5.598941 0 1 tcp 1250 ------- 1 0.0 1.0 557 8231
+ 5.599941 0 1 tcp 1250 ------- 1 0.0 1.0 558 8233
+ 5.600941 0 1 tcp 1250 ------- 1 0.0 1.0 559 8235
+ 5.601941 0 1 tcp 1250 ------- 1 0.0 1.0 560 8237
+ 5.602941 0 1 tcp 1250 ------- 1 0.0 1.0 561 8239
+ 5.603941 0 1 tcp 1250 ------- 1 0.0 1.0 562 8241
+ 5.604941 0 1 tcp 1250 ------- 1 0.0 1.0 563 8243
+ 5.605941 0 1 tcp 1250 ------- 1 0.0 1.0 564 8245
+ 5.606941 0 1 tcp 1250 ------- 1 0.0 1.0 565 8247
+ 5.607941 0 1 tcp 1250 ------- 1 0.0 1.0 566 8249
+ 5.608941 0 1 tcp 1250 ------- 1 0.0 1.0 567 8251
+ 5.609941 0 1 tcp 1250 ------- 1 0.0 1.0 568 8253
+ 5.610941 0 1 tcp 1250 ------- 1 0.0 1.0 569 8255
+ 5.611941 0 1 tcp 1250 ------- 1 0.0 1.0 570 8257
+ 5.612941 0 1 tcp 1250 ------- 1 0.0 1.0 571 8259
+ 5.613941 0 1 tcp 1250 ------- 1 0.0 1.0 572 8261
+ 5.614941 0 1 tcp 1250 ------- 1 0.0 1.0 573 8263
+ 5.615941 0 1 tcp 1250 ------- 1 0.0 1.0 574 8265
+ 5.616941 0 1 tcp 1250 ------- 1 0.0 1.0 575 8267
+ 5.617941 0 1 tcp 1250 ------- 1 0.0 1.0 576 8269
+ 5.618941 0 1 tcp 1250 ------- 1 0.0 1.0 577 8271
+ 5.619941 0 1 tcp 1250 ------- 1 0.0 1.0 578 8273
+ 5.620941 0 1 tcp 1250 ------- 1 0.0 1.0 579 8275
+ 5.621941 0 1 tcp 1250 ------- 1 0.0 1.0 580 8277
+ 5.622941 0 1 tcp 1250 ------- 1 0.0 1.0 581 8279
+ 5.623941 0 1 tcp 1250 ------- 1 0.0 1.0 582 8281
+ 5.624941 0 1 tcp 1250 ------- 1 0.0 1.0 583 8283
+ 5.631941 0 1 tcp 1250 ------- 1 0.0 1.0 584 8291
+ 5.633191 0 1 tcp 1250 ------- 1 0.0 1.0 585 8293
+ 5.63444 0 1 tcp 1250 ------- 1 0.0 1.0 586 8295
+ 5.63569 0 1 tcp 1250 ------- 1 0.0 1.0 587 8297
+ 5.63694 0 1 tcp 1250 ------- 1 0.0 1.0 588 8300
+ 5.63819 0 1 tcp 1250 ------- 1 0.0 1.0 589 8302
+ 5.63944 0 1 tcp 1250 ------- 1 0.0 1.0 590 8304