+ 0 0 1 tcp 1250 ------- 0 0.1 1.1 0 0
+ 0 0 1 tcp 1250 ------- 0 0.1 1.1 1 1
+ 0.101032 0 1 tcp 1250 ------- 0 0.1 1.1 2 4
+ 0.101032 0 1 tcp 1250 ------- 0 0.1 1.1 3 5
+ 0.102032 0 1 tcp 1250 ------- 0 0.1 1.1 4 6
+ 0.102032 0 1 tcp 1250 ------- 0 0.1 1.1 5 7
+ 0.202064 0 1 tcp 1250 ------- 0 0.1 1.1 6 12
+ 0.202064 0 1 tcp 1250 ------- 0 0.1 1.1 7 13
+ 0.203064 0 1 tcp 1250 ------- 0 0.1 1.1 8 14
+ 0.203064 0 1 tcp 1250 ------- 0 0.1 1.1 9 15
+ 0.204064 0 1 tcp 1250 ------- 0 0.1 1.1 10 16
+ 0.204064 0 1 tcp 1250 ------- 0 0.1 1.1 11 17
+ 0.205064 0 1 tcp 1250 ------- 0 0.1 1.1 12 18
+ 0.205064 0 1 tcp 1250 ------- 0 0.1 1.1 13 19
+ 0.303096 0 1 tcp 1250 ------- 0 0.1 1.1 14 28
+ 0.303096 0 1 tcp 1250 ------- 0 0.1 1.1 15 29
+ 0.304096 0 1 tcp 1250 ------- 0 0.1 1.1 16 30
+ 0.304096 0 1 tcp 1250 ------- 0 0.1 1.1 17 31
+ 0.305096 0 1 tcp 1250 ------- 0 0.1 1.1 18 32
+ 0.305096 0 1 tcp 1250 ------- 0 0.1 1.1 19 33
+ 0.306096 0 1 tcp 1250 ------- 0 0.1 1.1 20 34
+ 0.306096 0 1 tcp 1250 ------- 0 0.1 1.1 21 35
+ 0.307096 0 1 tcp 1250 ------- 0 0.1 1.1 22 36
+ 0.307096 0 1 tcp 1250 ------- 0 0.1 1.1 23 37
+ 0.308096 0 1 tcp 1250 ------- 0 0.1 1.1 24 38
+ 0.308096 0 1 tcp 1250 ------- 0 0.1 1.1 25 39
+ 0.309096 0 1 tcp 1250 ------- 0 0.1 1.1 26 40
+ 0.309096 0 1 tcp 1250 ------- 0 0.1 1.1 27 41
+ 0.310096 0 1 tcp 1250 ------- 0 0.1 1.1 28 42
+ 0.310096 0 1 tcp 1250 ------- 0 0.1 1.1 29 43
+ 0.404128 0 1 tcp 1250 ------- 0 0.1 1.1 30 60
+ 0.404128 0 1 tcp 1250 ------- 0 0.1 1.1 31 61
+ 0.405128 0 1 tcp 1250 ------- 0 0.1 1.1 32 62
+ 0.405128 0 1 tcp 1250 ------- 0 0.1 1.1 33 63
+ 0.406128 0 1 tcp 1250 ------- 0 0.1 1.1 34 64
+ 0.406128 0 1 tcp 1250 ------- 0 0.1 1.1 35 65
+ 0.407128 0 1 tcp 1250 ------- 0 0.1 1.1 36 66
+ 0.407128 0 1 tcp 1250 ------- 0 0.1 1.1 37 67
+ 0.408128 0 1 tcp 1250 ------- 0 0.1 1.1 38 68
+ 0.408128 0 1 tcp 1250 ------- 0 0.1 1.1 39 69
+ 0.409128 0 1 tcp 1250 ------- 0 0.1 1.1 40 70
+ 0.409128 0 1 tcp 1250 ------- 0 0.1 1.1 41 71
+ 0.410128 0 1 tcp 1250 ------- 0 0.1 1.1 42 72
+ 0.410128 0 1 tcp 1250 ------- 0 0.1 1.1 43 73
+ 0.411128 0 1 tcp 1250 ------- 0 0.1 1.1 44 74
+ 0.411128 0 1 tcp 1250 ------- 0 0.1 1.1 45 75
+ 0.412128 0 1 tcp 1250 ------- 0 0.1 1.1 46 76
+ 0.412128 0 1 tcp 1250 ------- 0 0.1 1.1 47 77
+ 0.413128 0 1 tcp 1250 ------- 0 0.1 1.1 48 78
+ 0.413128 0 1 tcp 1250 ------- 0 0.1 1.1 49 79
+ 0.414128 0 1 tcp 1250 ------- 0 0.1 1.1 50 80
+ 0.414128 0 1 tcp 1250 ------- 0 0.1 1.1 51 81
+ 0.415128 0 1 tcp 1250 ------- 0 0.1 1.1 52 82
+ 0.415128 0 1 tcp 1250 ------- 0 0.1 1.1 53 83
+ 0.416128 0 1 tcp 1250 ------- 0 0.1 1.1 54 84
+ 0.416128 0 1 tcp 1250 ------- 0 0.1 1.1 55 85
+ 0.417128 0 1 tcp 1250 ------- 0 0.1 1.1 56 86
+ 0.417128 0 1 tcp 1250 ------- 0 0.1 1.1 57 87
+ 0.418128 0 1 tcp 1250 ------- 0 0.1 1.1 58 88
+ 0.418128 0 1 tcp 1250 ------- 0 0.1 1.1 59 89
+ 0.419128 0 1 tcp 1250 ------- 0 0.1 1.1 60 90
+ 0.419128 0 1 tcp 1250 ------- 0 0.1 1.1 61 91
+ 0.50516 0 1 tcp 1250 ------- 0 0.1 1.1 62 124
+ 0.50516 0 1 tcp 1250 ------- 0 0.1 1.1 63 125
+ 0.50616 0 1 tcp 1250 ------- 0 0.1 1.1 64 126
+ 0.50616 0 1 tcp 1250 ------- 0 0.1 1.1 65 127
+ 0.50716 0 1 tcp 1250 ------- 0 0.1 1.1 66 128
+ 0.50716 0 1 tcp 1250 ------- 0 0.1 1.1 67 129
+ 0.50816 0 1 tcp 1250 ------- 0 0.1 1.1 68 130
+ 0.50816 0 1 tcp 1250 ------- 0 0.1 1.1 69 131
+ 0.50916 0 1 tcp 1250 ------- 0 0.1 1.1 70 132
+ 0.50916 0 1 tcp 1250 ------- 0 0.1 1.1 71 133
+ 0.51016 0 1 tcp 1250 ------- 0 0.1 1.1 72 134
+ 0.51016 0 1 tcp 1250 ------- 0 0.1 1.1 73 135
+ 0.51116 0 1 tcp 1250 ------- 0 0.1 1.1 74 136
+ 0.51116 0 1 tcp 1250 ------- 0 0.1 1.1 75 137
+ 0.51216 0 1 tcp 1250 ------- 0 0.1 1.1 76 138
+ 0.51216 0 1 tcp 1250 ------- 0 0.1 1.1 77 139
+ 0.51316 0 1 tcp 1250 ------- 0 0.1 1.1 78 140
+ 0.51316 0 1 tcp 1250 ------- 0 0.1 1.1 79 141
+ 0.51416 0 1 tcp 1250 ------- 0 0.1 1.1 80 142
+ 0.51416 0 1 tcp 1250 ------- 0 0.1 1.1 81 143
+ 0.51516 0 1 tcp 1250 ------- 0 0.1 1.1 82 144
+ 0.51516 0 1 tcp 1250 ------- 0 0.1 1.1 83 145
+ 0.51616 0 1 tcp 1250 ------- 0 0.1 1.1 84 146
+ 0.51616 0 1 tcp 1250 ------- 0 0.1 1.1 85 147
+ 0.51716 0 1 tcp 1250 ------- 0 0.1 1.1 86 148
+ 0.51716 0 1 tcp 1250 ------- 0 0.1 1.1 87 149
+ 0.51816 0 1 tcp 1250 ------- 0 0.1 1.1 88 150
+ 0.51816 0 1 tcp 1250 ------- 0 0.1 1.1 89 151
+ 0.51916 0 1 tcp 1250 ------- 0 0.1 1.1 90 152
+ 0.51916 0 1 tcp 1250 ------- 0 0.1 1.1 91 153
+ 0.52016 0 1 tcp 1250 ------- 0 0.1 1.1 92 154
+ 0.52016 0 1 tcp 1250 ------- 0 0.1 1.1 93 155
+ 0.52116 0 1 tcp 1250 ------- 0 0.1 1.1 94 156
+ 0.52116 0 1 tcp 1250 ------- 0 0.1 1.1 95 157
+ 0.52216 0 1 tcp 1250 ------- 0 0.1 1.1 96 158
+ 0.52216 0 1 tcp 1250 ------- 0 0.1 1.1 97 159
+ 0.52316 0 1 tcp 1250 ------- 0 0.1 1.1 98 160
+ 0.52316 0 1 tcp 1250 ------- 0 0.1 1.1 99 161
+ 0.52416 0 1 tcp 1250 ------- 0 0.1 1.1 100 162
+ 0.52416 0 1 tcp 1250 ------- 0 0.1 1.1 101 163
+ 0.52516 0 1 tcp 1250 ------- 0 0.1 1.1 102 164
+ 0.52516 0 1 tcp 1250 ------- 0 0.1 1.1 103 165
+ 0.52616 0 1 tcp 1250 ------- 0 0.1 1.1 104 166
+ 0.52616 0 1 tcp 1250 ------- 0 0.1 1.1 105 167
+ 0.52716 0 1 tcp 1250 ------- 0 0.1 1.1 106 168
+ 0.52716 0 1 tcp 1250 ------- 0 0.1 1.1 107 169
+ 0.52816 0 1 tcp 1250 ------- 0 0.1 1.1 108 170
+ 0.52816 0 1 tcp 1250 ------- 0 0.1 1.1 109 171
+ 0.52916 0 1 tcp 1250 ------- 0 0.1 1.1 110 172
+ 0.52916 0 1 tcp 1250 ------- 0 0.1 1.1 111 173
+ 0.53016 0 1 tcp 1250 ------- 0 0.1 1.1 112 174
+ 0.53016 0 1 tcp 1250 ------- 0 0.1 1.1 113 175
+ 0.53116 0 1 tcp 1250 ------- 0 0.1 1.1 114 176
+ 0.53116 0 1 tcp 1250 ------- 0 0.1 1.1 115 177
+ 0.53216 0 1 tcp 1250 ------- 0 0.1 1.1 116 178
+ 0.53216 0 1 tcp 1250 ------- 0 0.1 1.1 117 179
+ 0.53316 0 1 tcp 1250 ------- 0 0.1 1.1 118 180
+ 0.53316 0 1 tcp 1250 ------- 0 0.1 1.1 119 181
+ 0.53416 0 1 tcp 1250 ------- 0 0.1 1.1 120 182
+ 0.53416 0 1 tcp 1250 ------- 0 0.1 1.1 121 183
+ 0.53516 0 1 tcp 1250 ------- 0 0.1 1.1 122 184
+ 0.53516 0 1 tcp 1250 ------- 0 0.1 1.1 123 185
+ 0.53616 0 1 tcp 1250 ------- 0 0.1 1.1 124 186
+ 0.53616 0 1 tcp 1250 ------- 0 0.1 1.1 125 187
+ 0.606192 0 1 tcp 1250 ------- 0 0.1 1.1 126 239
+ 0.606192 0 1 tcp 1250 ------- 0 0.1 1.1 127 240
+ 0.607192 0 1 tcp 1250 ------- 0 0.1 1.1 128 242
+ 0.607192 0 1 tcp 1250 ------- 0 0.1 1.1 129 243
+ 0.608192 0 1 tcp 1250 ------- 0 0.1 1.1 130 245
+ 0.608192 0 1 tcp 1250 ------- 0 0.1 1.1 131 246
+ 0.609192 0 1 tcp 1250 ------- 0 0.1 1.1 132 248
+ 0.609192 0 1 tcp 1250 ------- 0 0.1 1.1 133 249
+ 0.610192 0 1 tcp 1250 ------- 0 0.1 1.1 134 251
+ 0.610192 0 1 tcp 1250 ------- 0 0.1 1.1 135 252
+ 0.611192 0 1 tcp 1250 ------- 0 0.1 1.1 136 254
+ 0.611192 0 1 tcp 1250 ------- 0 0.1 1.1 137 255
+ 0.612192 0 1 tcp 1250 ------- 0 0.1 1.1 138 257
+ 0.612192 0 1 tcp 1250 ------- 0 0.1 1.1 139 258
+ 0.613192 0 1 tcp 1250 ------- 0 0.1 1.1 140 260
+ 0.613192 0 1 tcp 1250 ------- 0 0.1 1.1 141 261
+ 0.614192 0 1 tcp 1250 ------- 0 0.1 1.1 142 263
+ 0.614192 0 1 tcp 1250 ------- 0 0.1 1.1 143 264
+ 0.615192 0 1 tcp 1250 ------- 0 0.1 1.1 144 266
+ 0.615192 0 1 tcp 1250 ------- 0 0.1 1.1 145 267
+ 0.616192 0 1 tcp 1250 ------- 0 0.1 1.1 146 269
+ 0.616192 0 1 tcp 1250 ------- 0 0.1 1.1 147 270
+ 0.617192 0 1 tcp 1250 ------- 0 0.1 1.1 148 272
+ 0.617192 0 1 tcp 1250 ------- 0 0.1 1.1 149 273
+ 0.618192 0 1 tcp 1250 ------- 0 0.1 1.1 150 275
+ 0.618192 0 1 tcp 1250 ------- 0 0.1 1.1 151 276
+ 0.619192 0 1 tcp 1250 ------- 0 0.1 1.1 152 278
+ 0.619192 0 1 tcp 1250 ------- 0 0.1 1.1 153 279
+ 0.620192 0 1 tcp 1250 ------- 0 0.1 1.1 154 280
+ 0.620192 0 1 tcp 1250 ------- 0 0.1 1.1 155 281
+ 0.621192 0 1 tcp 1250 ------- 0 0.1 1.1 156 282
+ 0.621192 0 1 tcp 1250 ------- 0 0.1 1.1 157 283
+ 0.622192 0 1 tcp 1250 ------- 0 0.1 1.1 158 284
+ 0.622192 0 1 tcp 1250 ------- 0 0.1 1.1 159 285
+ 0.623192 0 1 tcp 1250 ------- 0 0.1 1.1 160 286
+ 0.623192 0 1 tcp 1250 ------- 0 0.1 1.1 161 287
+ 0.624192 0 1 tcp 1250 ------- 0 0.1 1.1 162 288
+ 0.624192 0 1 tcp 1250 ------- 0 0.1 1.1 163 289
+ 0.625192 0 1 tcp 1250 ------- 0 0.1 1.1 164 290
+ 0.625192 0 1 tcp 1250 ------- 0 0.1 1.1 165 291
+ 0.626192 0 1 tcp 1250 ------- 0 0.1 1.1 166 292
+ 0.626192 0 1 tcp 1250 ------- 0 0.1 1.1 167 293
+ 0.627192 0 1 tcp 1250 ------- 0 0.1 1.1 168 294
+ 0.627192 0 1 tcp 1250 ------- 0 0.1 1.1 169 295
+ 0.628192 0 1 tcp 1250 ------- 0 0.1 1.1 170 296
+ 0.628192 0 1 tcp 1250 ------- 0 0.1 1.1 171 297
+ 0.629192 0 1 tcp 1250 ------- 0 0.1 1.1 172 298
+ 0.629192 0 1 tcp 1250 ------- 0 0.1 1.1 173 299
+ 0.630192 0 1 tcp 1250 ------- 0 0.1 1.1 174 300
+ 0.630192 0 1 tcp 1250 ------- 0 0.1 1.1 175 301
+ 0.631192 0 1 tcp 1250 ------- 0 0.1 1.1 176 302
+ 0.631192 0 1 tcp 1250 ------- 0 0.1 1.1 177 303
+ 0.632192 0 1 tcp 1250 ------- 0 0.1 1.1 178 304
+ 0.632192 0 1 tcp 1250 ------- 0 0.1 1.1 179 305
+ 0.633192 0 1 tcp 1250 ------- 0 0.1 1.1 180 306
+ 0.633192 0 1 tcp 1250 ------- 0 0.1 1.1 181 307
+ 0.634192 0 1 tcp 1250 ------- 0 0.1 1.1 182 308
+ 0.634192 0 1 tcp 1250 ------- 0 0.1 1.1 183 309
+ 0.635192 0 1 tcp 1250 ------- 0 0.1 1.1 184 310
+ 0.635192 0 1 tcp 1250 ------- 0 0.1 1.1 185 311
+ 0.636192 0 1 tcp 1250 ------- 0 0.1 1.1 186 312
+ 0.636192 0 1 tcp 1250 ------- 0 0.1 1.1 187 313
+ 0.637192 0 1 tcp 1250 ------- 0 0.1 1.1 188 314
+ 0.637192 0 1 tcp 1250 ------- 0 0.1 1.1 189 315
+ 0.638192 0 1 tcp 1250 ------- 0 0.1 1.1 190 316
+ 0.638192 0 1 tcp 1250 ------- 0 0.1 1.1 191 317
+ 0.639192 0 1 tcp 1250 ------- 0 0.1 1.1 192 318
+ 0.639192 0 1 tcp 1250 ------- 0 0.1 1.1 193 319
+ 0.640192 0 1 tcp 1250 ------- 0 0.1 1.1 194 320
+ 0.640192 0 1 tcp 1250 ------- 0 0.1 1.1 195 321
+ 0.641192 0 1 tcp 1250 ------- 0 0.1 1.1 196 322
+ 0.641192 0 1 tcp 1250 ------- 0 0.1 1.1 197 323
+ 0.642192 0 1 tcp 1250 ------- 0 0.1 1.1 198 324
+ 0.642192 0 1 tcp 1250 ------- 0 0.1 1.1 199 325
+ 0.643192 0 1 tcp 1250 ------- 0 0.1 1.1 200 326
+ 0.643192 0 1 tcp 1250 ------- 0 0.1 1.1 201 327
+ 0.644192 0 1 tcp 1250 ------- 0 0.1 1.1 202 328
+ 0.644192 0 1 tcp 1250 ------- 0 0.1 1.1 203 329
+ 0.645192 0 1 tcp 1250 ------- 0 0.1 1.1 204 330
+ 0.645192 0 1 tcp 1250 ------- 0 0.1 1.1 205 331
+ 0.646192 0 1 tcp 1250 ------- 0 0.1 1.1 206 332
+ 0.646192 0 1 tcp 1250 ------- 0 0.1 1.1 207 333
+ 0.647192 0 1 tcp 1250 ------- 0 0.1 1.1 208 334
+ 0.647192 0 1 tcp 1250 ------- 0 0.1 1.1 209 335
+ 0.648192 0 1 tcp 1250 ------- 0 0.1 1.1 210 336
+ 0.648192 0 1 tcp 1250 ------- 0 0.1 1.1 211 337
+ 0.649192 0 1 tcp 1250 ------- 0 0.1 1.1 212 338
+ 0.649192 0 1 tcp 1250 ------- 0 0.1 1.1 213 339
+ 0.650192 0 1 tcp 1250 ------- 0 0.1 1.1 214 340
+ 0.650192 0 1 tcp 1250 ------- 0 0.1 1.1 215 341
+ 0.651192 0 1 tcp 1250 ------- 0 0.1 1.1 216 342
+ 0.651192 0 1 tcp 1250 ------- 0 0.1 1.1 217 343
+ 0.652192 0 1 tcp 1250 ------- 0 0.1 1.1 218 344
+ 0.652192 0 1 tcp 1250 ------- 0 0.1 1.1 219 345
+ 0.653192 0 1 tcp 1250 ------- 0 0.1 1.1 220 346
+ 0.653192 0 1 tcp 1250 ------- 0 0.1 1.1 221 347
+ 0.654192 0 1 tcp 1250 ------- 0 0.1 1.1 222 348
+ 0.654192 0 1 tcp 1250 ------- 0 0.1 1.1 223 349
+ 0.655192 0 1 tcp 1250 ------- 0 0.1 1.1 224 350
+ 0.655192 0 1 tcp 1250 ------- 0 0.1 1.1 225 351
+ 0.656192 0 1 tcp 1250 ------- 0 0.1 1.1 226 352
+ 0.656192 0 1 tcp 1250 ------- 0 0.1 1.1 227 353
+ 0.657192 0 1 tcp 1250 ------- 0 0.1 1.1 228 355
+ 0.657192 0 1 tcp 1250 ------- 0 0.1 1.1 229 356
+ 0.658192 0 1 tcp 1250 ------- 0 0.1 1.1 230 358
+ 0.658192 0 1 tcp 1250 ------- 0 0.1 1.1 231 359
+ 0.659192 0 1 tcp 1250 ------- 0 0.1 1.1 232 361
+ 0.659192 0 1 tcp 1250 ------- 0 0.1 1.1 233 362
+ 0.660192 0 1 tcp 1250 ------- 0 0.1 1.1 234 364
+ 0.660192 0 1 tcp 1250 ------- 0 0.1 1.1 235 365
+ 0.661192 0 1 tcp 1250 ------- 0 0.1 1.1 236 367
+ 0.661192 0 1 tcp 1250 ------- 0 0.1 1.1 237 368
+ 0.662192 0 1 tcp 1250 ------- 0 0.1 1.1 238 370
+ 0.662192 0 1 tcp 1250 ------- 0 0.1 1.1 239 371
+ 0.663192 0 1 tcp 1250 ------- 0 0.1 1.1 240 373
+ 0.663192 0 1 tcp 1250 ------- 0 0.1 1.1 241 374
+ 0.664192 0 1 tcp 1250 ------- 0 0.1 1.1 242 376
+ 0.664192 0 1 tcp 1250 ------- 0 0.1 1.1 243 377
+ 0.665192 0 1 tcp 1250 ------- 0 0.1 1.1 244 379
+ 0.665192 0 1 tcp 1250 ------- 0 0.1 1.1 245 380
+ 0.666192 0 1 tcp 1250 ------- 0 0.1 1.1 246 382
+ 0.666192 0 1 tcp 1250 ------- 0 0.1 1.1 247 383
+ 0.667192 0 1 tcp 1250 ------- 0 0.1 1.1 248 385
+ 0.667192 0 1 tcp 1250 ------- 0 0.1 1.1 249 386
+ 0.668192 0 1 tcp 1250 ------- 0 0.1 1.1 250 388
+ 0.668192 0 1 tcp 1250 ------- 0 0.1 1.1 251 389
+ 0.669192 0 1 tcp 1250 ------- 0 0.1 1.1 252 391
+ 0.669192 0 1 tcp 1250 ------- 0 0.1 1.1 253 392
+ 0.707224 0 1 tcp 1250 ------- 0 0.1 1.1 254 431
+ 0.707224 0 1 tcp 1250 ------- 0 0.1 1.1 255 432
+ 0.708224 0 1 tcp 1250 ------- 0 0.1 1.1 256 434
+ 0.708224 0 1 tcp 1250 ------- 0 0.1 1.1 257 435
+ 0.709224 0 1 tcp 1250 ------- 0 0.1 1.1 258 437
+ 0.709224 0 1 tcp 1250 ------- 0 0.1 1.1 259 438
+ 0.710224 0 1 tcp 1250 ------- 0 0.1 1.1 260 440
+ 0.710224 0 1 tcp 1250 ------- 0 0.1 1.1 261 441
+ 0.711224 0 1 tcp 1250 ------- 0 0.1 1.1 262 443
+ 0.711224 0 1 tcp 1250 ------- 0 0.1 1.1 263 444
+ 0.712224 0 1 tcp 1250 ------- 0 0.1 1.1 264 446
+ 0.712224 0 1 tcp 1250 ------- 0 0.1 1.1 265 447
+ 0.713224 0 1 tcp 1250 ------- 0 0.1 1.1 266 449
+ 0.713224 0 1 tcp 1250 ------- 0 0.1 1.1 267 450
+ 0.714224 0 1 tcp 1250 ------- 0 0.1 1.1 268 452
+ 0.714224 0 1 tcp 1250 ------- 0 0.1 1.1 269 453
+ 0.715224 0 1 tcp 1250 ------- 0 0.1 1.1 270 455
+ 0.715224 0 1 tcp 1250 ------- 0 0.1 1.1 271 456
+ 0.716224 0 1 tcp 1250 ------- 0 0.1 1.1 272 458
+ 0.716224 0 1 tcp 1250 ------- 0 0.1 1.1 273 459
+ 0.717224 0 1 tcp 1250 ------- 0 0.1 1.1 274 461
+ 0.717224 0 1 tcp 1250 ------- 0 0.1 1.1 275 462
+ 0.718224 0 1 tcp 1250 ------- 0 0.1 1.1 276 464
+ 0.718224 0 1 tcp 1250 ------- 0 0.1 1.1 277 465
+ 0.719224 0 1 tcp 1250 ------- 0 0.1 1.1 278 467
+ 0.719224 0 1 tcp 1250 ------- 0 0.1 1.1 279 468
+ 0.720224 0 1 tcp 1250 ------- 0 0.1 1.1 280 470
+ 0.720224 0 1 tcp 1250 ------- 0 0.1 1.1 281 471
+ 0.721224 0 1 tcp 1250 ------- 0 0.1 1.1 282 473
+ 0.721224 0 1 tcp 1250 ------- 0 0.1 1.1 283 474
+ 0.722224 0 1 tcp 1250 ------- 0 0.1 1.1 284 476
+ 0.722224 0 1 tcp 1250 ------- 0 0.1 1.1 285 477
+ 0.723224 0 1 tcp 1250 ------- 0 0.1 1.1 286 479
+ 0.723224 0 1 tcp 1250 ------- 0 0.1 1.1 287 480
+ 0.724224 0 1 tcp 1250 ------- 0 0.1 1.1 288 482
+ 0.724224 0 1 tcp 1250 ------- 0 0.1 1.1 289 483
+ 0.725224 0 1 tcp 1250 ------- 0 0.1 1.1 290 485
+ 0.725224 0 1 tcp 1250 ------- 0 0.1 1.1 291 486
+ 0.726224 0 1 tcp 1250 ------- 0 0.1 1.1 292 488
+ 0.726224 0 1 tcp 1250 ------- 0 0.1 1.1 293 489
+ 0.727224 0 1 tcp 1250 ------- 0 0.1 1.1 294 491
+ 0.727224 0 1 tcp 1250 ------- 0 0.1 1.1 295 492
+ 0.728224 0 1 tcp 1250 ------- 0 0.1 1.1 296 494
+ 0.728224 0 1 tcp 1250 ------- 0 0.1 1.1 297 495
+ 0.729224 0 1 tcp 1250 ------- 0 0.1 1.1 298 497
+ 0.729224 0 1 tcp 1250 ------- 0 0.1 1.1 299 498
+ 0.730224 0 1 tcp 1250 ------- 0 0.1 1.1 300 500
+ 0.730224 0 1 tcp 1250 ------- 0 0.1 1.1 301 501
+ 0.731224 0 1 tcp 1250 ------- 0 0.1 1.1 302 503
+ 0.731224 0 1 tcp 1250 ------- 0 0.1 1.1 303 504
+ 0.732224 0 1 tcp 1250 ------- 0 0.1 1.1 304 506
+ 0.732224 0 1 tcp 1250 ------- 0 0.1 1.1 305 507
+ 0.733224 0 1 tcp 1250 ------- 0 0.1 1.1 306 509
+ 0.733224 0 1 tcp 1250 ------- 0 0.1 1.1 307 510
+ 0.734224 0 1 tcp 1250 ------- 0 0.1 1.1 308 512
+ 0.734224 0 1 tcp 1250 ------- 0 0.1 1.1 309 513
+ 0.735224 0 1 tcp 1250 ------- 0 0.1 1.1 310 515
+ 0.735224 0 1 tcp 1250 ------- 0 0.1 1.1 311 516
+ 0.736224 0 1 tcp 1250 ------- 0 0.1 1.1 312 518
+ 0.736224 0 1 tcp 1250 ------- 0 0.1 1.1 313 519
+ 0.737224 0 1 tcp 1250 ------- 0 0.1 1.1 314 521
+ 0.737224 0 1 tcp 1250 ------- 0 0.1 1.1 315 522
+ 0.738224 0 1 tcp 1250 ------- 0 0.1 1.1 316 524
+ 0.738224 0 1 tcp 1250 ------- 0 0.1 1.1 317 525
+ 0.739224 0 1 tcp 1250 ------- 0 0.1 1.1 318 527
+ 0.739224 0 1 tcp 1250 ------- 0 0.1 1.1 319 528
+ 0.740224 0 1 tcp 1250 ------- 0 0.1 1.1 320 530
+ 0.740224 0 1 tcp 1250 ------- 0 0.1 1.1 321 531
+ 0.741224 0 1 tcp 1250 ------- 0 0.1 1.1 322 533
+ 0.741224 0 1 tcp 1250 ------- 0 0.1 1.1 323 534
+ 0.742224 0 1 tcp 1250 ------- 0 0.1 1.1 324 536
+ 0.742224 0 1 tcp 1250 ------- 0 0.1 1.1 325 537
+ 0.743224 0 1 tcp 1250 ------- 0 0.1 1.1 326 539
+ 0.743224 0 1 tcp 1250 ------- 0 0.1 1.1 327 540
+ 0.744224 0 1 tcp 1250 ------- 0 0.1 1.1 328 542
+ 0.744224 0 1 tcp 1250 ------- 0 0.1 1.1 329 543
+ 0.745224 0 1 tcp 1250 ------- 0 0.1 1.1 330 545
+ 0.745224 0 1 tcp 1250 ------- 0 0.1 1.1 331 546
+ 0.746224 0 1 tcp 1250 ------- 0 0.1 1.1 332 548
+ 0.746224 0 1 tcp 1250 ------- 0 0.1 1.1 333 549
+ 0.747224 0 1 tcp 1250 ------- 0 0.1 1.1 334 551
+ 0.747224 0 1 tcp 1250 ------- 0 0.1 1.1 335 552
+ 0.748224 0 1 tcp 1250 ------- 0 0.1 1.1 336 554
+ 0.748224 0 1 tcp 1250 ------- 0 0.1 1.1 337 555
+ 0.749224 0 1 tcp 1250 ------- 0 0.1 1.1 338 557
+ 0.749224 0 1 tcp 1250 ------- 0 0.1 1.1 339 558
+ 0.750224 0 1 tcp 1250 ------- 0 0.1 1.1 340 560
+ 0.750224 0 1 tcp 1250 ------- 0 0.1 1.1 341 561
+ 0.751224 0 1 tcp 1250 ------- 0 0.1 1.1 342 563
+ 0.751224 0 1 tcp 1250 ------- 0 0.1 1.1 343 564
+ 0.752224 0 1 tcp 1250 ------- 0 0.1 1.1 344 566
+ 0.752224 0 1 tcp 1250 ------- 0 0.1 1.1 345 567
+ 0.753224 0 1 tcp 1250 ------- 0 0.1 1.1 346 569
+ 0.753224 0 1 tcp 1250 ------- 0 0.1 1.1 347 570
+ 0.754224 0 1 tcp 1250 ------- 0 0.1 1.1 348 572
+ 0.754224 0 1 tcp 1250 ------- 0 0.1 1.1 349 573
+ 0.755224 0 1 tcp 1250 ------- 0 0.1 1.1 350 575
+ 0.755224 0 1 tcp 1250 ------- 0 0.1 1.1 351 576
+ 0.756224 0 1 tcp 1250 ------- 0 0.1 1.1 352 578
+ 0.756224 0 1 tcp 1250 ------- 0 0.1 1.1 353 579
+ 0.757224 0 1 tcp 1250 ------- 0 0.1 1.1 354 581
+ 0.757224 0 1 tcp 1250 ------- 0 0.1 1.1 355 582
+ 0.758224 0 1 tcp 1250 ------- 0 0.1 1.1 356 584
+ 0.758224 0 1 tcp 1250 ------- 0 0.1 1.1 357 585
+ 0.759224 0 1 tcp 1250 ------- 0 0.1 1.1 358 587
+ 0.759224 0 1 tcp 1250 ------- 0 0.1 1.1 359 588
+ 0.760224 0 1 tcp 1250 ------- 0 0.1 1.1 360 590
+ 0.760224 0 1 tcp 1250 ------- 0 0.1 1.1 361 591
+ 0.761224 0 1 tcp 1250 ------- 0 0.1 1.1 362 593
+ 0.761224 0 1 tcp 1250 ------- 0 0.1 1.1 363 594
+ 0.762224 0 1 tcp 1250 ------- 0 0.1 1.1 364 596
+ 0.762224 0 1 tcp 1250 ------- 0 0.1 1.1 365 597
+ 0.763224 0 1 tcp 1250 ------- 0 0.1 1.1 366 599
+ 0.763224 0 1 tcp 1250 ------- 0 0.1 1.1 367 600
+ 0.764224 0 1 tcp 1250 ------- 0 0.1 1.1 368 602
+ 0.764224 0 1 tcp 1250 ------- 0 0.1 1.1 369 603
+ 0.765224 0 1 tcp 1250 ------- 0 0.1 1.1 370 605
+ 0.765224 0 1 tcp 1250 ------- 0 0.1 1.1 371 606
+ 0.766224 0 1 tcp 1250 ------- 0 0.1 1.1 372 608
+ 0.766224 0 1 tcp 1250 ------- 0 0.1 1.1 373 609
+ 0.767224 0 1 tcp 1250 ------- 0 0.1 1.1 374 611
+ 0.767224 0 1 tcp 1250 ------- 0 0.1 1.1 375 612
+ 0.768224 0 1 tcp 1250 ------- 0 0.1 1.1 376 614
+ 0.768224 0 1 tcp 1250 ------- 0 0.1 1.1 377 615
+ 0.769224 0 1 tcp 1250 ------- 0 0.1 1.1 378 617
+ 0.769224 0 1 tcp 1250 ------- 0 0.1 1.1 379 618
+ 0.770224 0 1 tcp 1250 ------- 0 0.1 1.1 380 620
+ 0.770224 0 1 tcp 1250 ------- 0 0.1 1.1 381 621
+ 0.771224 0 1 tcp 1250 ------- 0 0.1 1.1 382 623
+ 0.771224 0 1 tcp 1250 ------- 0 0.1 1.1 383 624
+ 0.772224 0 1 tcp 1250 ------- 0 0.1 1.1 384 626
+ 0.772224 0 1 tcp 1250 ------- 0 0.1 1.1 385 627
+ 0.773224 0 1 tcp 1250 ------- 0 0.1 1.1 386 629
+ 0.773224 0 1 tcp 1250 ------- 0 0.1 1.1 387 630
+ 0.774224 0 1 tcp 1250 ------- 0 0.1 1.1 388 632
+ 0.774224 0 1 tcp 1250 ------- 0 0.1 1.1 389 633
+ 0.775224 0 1 tcp 1250 ------- 0 0.1 1.1 390 635
+ 0.775224 0 1 tcp 1250 ------- 0 0.1 1.1 391 636
+ 0.776224 0 1 tcp 1250 ------- 0 0.1 1.1 392 638
+ 0.776224 0 1 tcp 1250 ------- 0 0.1 1.1 393 639
+ 0.777224 0 1 tcp 1250 ------- 0 0.1 1.1 394 641
+ 0.777224 0 1 tcp 1250 ------- 0 0.1 1.1 395 642
+ 0.778224 0 1 tcp 1250 ------- 0 0.1 1.1 396 644
+ 0.778224 0 1 tcp 1250 ------- 0 0.1 1.1 397 645
+ 0.779224 0 1 tcp 1250 ------- 0 0.1 1.1 398 647
+ 0.779224 0 1 tcp 1250 ------- 0 0.1 1.1 399 648
+ 0.780224 0 1 tcp 1250 ------- 0 0.1 1.1 400 650
+ 0.780224 0 1 tcp 1250 ------- 0 0.1 1.1 401 651
+ 0.781224 0 1 tcp 1250 ------- 0 0.1 1.1 402 653
+ 0.781224 0 1 tcp 1250 ------- 0 0.1 1.1 403 654
+ 0.782224 0 1 tcp 1250 ------- 0 0.1 1.1 404 656
+ 0.782224 0 1 tcp 1250 ------- 0 0.1 1.1 405 657
+ 0.783224 0 1 tcp 1250 ------- 0 0.1 1.1 406 659
+ 0.783224 0 1 tcp 1250 ------- 0 0.1 1.1 407 660
+ 0.784224 0 1 tcp 1250 ------- 0 0.1 1.1 408 662
+ 0.784224 0 1 tcp 1250 ------- 0 0.1 1.1 409 663
+ 0.785224 0 1 tcp 1250 ------- 0 0.1 1.1 410 665
+ 0.785224 0 1 tcp 1250 ------- 0 0.1 1.1 411 666
+ 0.786224 0 1 tcp 1250 ------- 0 0.1 1.1 412 668
+ 0.786224 0 1 tcp 1250 ------- 0 0.1 1.1 413 669
+ 0.787224 0 1 tcp 1250 ------- 0 0.1 1.1 414 671
+ 0.787224 0 1 tcp 1250 ------- 0 0.1 1.1 415 672
+ 0.788224 0 1 tcp 1250 ------- 0 0.1 1.1 416 674
+ 0.788224 0 1 tcp 1250 ------- 0 0.1 1.1 417 675
+ 0.789224 0 1 tcp 1250 ------- 0 0.1 1.1 418 677
+ 0.789224 0 1 tcp 1250 ------- 0 0.1 1.1 419 678
+ 0.790224 0 1 tcp 1250 ------- 0 0.1 1.1 420 680
+ 0.790224 0 1 tcp 1250 ------- 0 0.1 1.1 421 681
+ 0.791224 0 1 tcp 1250 ------- 0 0.1 1.1 422 683
+ 0.791224 0 1 tcp 1250 ------- 0 0.1 1.1 423 684
+ 0.792224 0 1 tcp 1250 ------- 0 0.1 1.1 424 686
+ 0.792224 0 1 tcp 1250 ------- 0 0.1 1.1 425 687
+ 0.793224 0 1 tcp 1250 ------- 0 0.1 1.1 426 689
+ 0.793224 0 1 tcp 1250 ------- 0 0.1 1.1 427 690
+ 0.794224 0 1 tcp 1250 ------- 0 0.1 1.1 428 692
+ 0.794224 0 1 tcp 1250 ------- 0 0.1 1.1 429 693
+ 0.795224 0 1 tcp 1250 ------- 0 0.1 1.1 430 695
+ 0.795224 0 1 tcp 1250 ------- 0 0.1 1.1 431 696
+ 0.796224 0 1 tcp 1250 ------- 0 0.1 1.1 432 698
+ 0.796224 0 1 tcp 1250 ------- 0 0.1 1.1 433 699
+ 0.797224 0 1 tcp 1250 ------- 0 0.1 1.1 434 701
+ 0.797224 0 1 tcp 1250 ------- 0 0.1 1.1 435 702
+ 0.798224 0 1 tcp 1250 ------- 0 0.1 1.1 436 704
+ 0.798224 0 1 tcp 1250 ------- 0 0.1 1.1 437 705
+ 0.799224 0 1 tcp 1250 ------- 0 0.1 1.1 438 707
+ 0.799224 0 1 tcp 1250 ------- 0 0.1 1.1 439 708
+ 0.800224 0 1 tcp 1250 ------- 0 0.1 1.1 440 710
+ 0.800224 0 1 tcp 1250 ------- 0 0.1 1.1 441 711
+ 0.801224 0 1 tcp 1250 ------- 0 0.1 1.1 442 713
+ 0.801224 0 1 tcp 1250 ------- 0 0.1 1.1 443 714
+ 0.802224 0 1 tcp 1250 ------- 0 0.1 1.1 444 716
+ 0.802224 0 1 tcp 1250 ------- 0 0.1 1.1 445 717
+ 0.803224 0 1 tcp 1250 ------- 0 0.1 1.1 446 719
+ 0.803224 0 1 tcp 1250 ------- 0 0.1 1.1 447 720
+ 0.804224 0 1 tcp 1250 ------- 0 0.1 1.1 448 722
+ 0.804224 0 1 tcp 1250 ------- 0 0.1 1.1 449 723
+ 0.805224 0 1 tcp 1250 ------- 0 0.1 1.1 450 725
+ 0.805224 0 1 tcp 1250 ------- 0 0.1 1.1 451 726
+ 0.806224 0 1 tcp 1250 ------- 0 0.1 1.1 452 728
+ 0.806224 0 1 tcp 1250 ------- 0 0.1 1.1 453 729
+ 0.807224 0 1 tcp 1250 ------- 0 0.1 1.1 454 731
+ 0.807224 0 1 tcp 1250 ------- 0 0.1 1.1 455 732
+ 0.808224 0 1 tcp 1250 ------- 0 0.1 1.1 456 734
+ 0.808224 0 1 tcp 1250 ------- 0 0.1 1.1 457 735
+ 0.809224 0 1 tcp 1250 ------- 0 0.1 1.1 458 737
+ 0.809224 0 1 tcp 1250 ------- 0 0.1 1.1 459 738
+ 0.810224 0 1 tcp 1250 ------- 0 0.1 1.1 460 740
+ 0.810224 0 1 tcp 1250 ------- 0 0.1 1.1 461 741
+ 0.811224 0 1 tcp 1250 ------- 0 0.1 1.1 462 743
+ 0.811224 0 1 tcp 1250 ------- 0 0.1 1.1 463 744
+ 0.812224 0 1 tcp 1250 ------- 0 0.1 1.1 464 746
+ 0.812224 0 1 tcp 1250 ------- 0 0.1 1.1 465 747
+ 0.813224 0 1 tcp 1250 ------- 0 0.1 1.1 466 749
+ 0.813224 0 1 tcp 1250 ------- 0 0.1 1.1 467 750
+ 0.814224 0 1 tcp 1250 ------- 0 0.1 1.1 468 752
+ 0.814224 0 1 tcp 1250 ------- 0 0.1 1.1 469 753
+ 0.815224 0 1 tcp 1250 ------- 0 0.1 1.1 470 755
+ 0.815224 0 1 tcp 1250 ------- 0 0.1 1.1 471 756
+ 0.816224 0 1 tcp 1250 ------- 0 0.1 1.1 472 758
+ 0.816224 0 1 tcp 1250 ------- 0 0.1 1.1 473 759
+ 0.817224 0 1 tcp 1250 ------- 0 0.1 1.1 474 761
+ 0.817224 0 1 tcp 1250 ------- 0 0.1 1.1 475 762
+ 0.818224 0 1 tcp 1250 ------- 0 0.1 1.1 476 764
+ 0.818224 0 1 tcp 1250 ------- 0 0.1 1.1 477 765
+ 0.819224 0 1 tcp 1250 ------- 0 0.1 1.1 478 767
+ 0.819224 0 1 tcp 1250 ------- 0 0.1 1.1 479 768
+ 0.820224 0 1 tcp 1250 ------- 0 0.1 1.1 480 770
+ 0.820224 0 1 tcp 1250 ------- 0 0.1 1.1 481 771
+ 0.821224 0 1 tcp 1250 ------- 0 0.1 1.1 482 773
+ 0.821224 0 1 tcp 1250 ------- 0 0.1 1.1 483 774
+ 0.822224 0 1 tcp 1250 ------- 0 0.1 1.1 484 776
+ 0.822224 0 1 tcp 1250 ------- 0 0.1 1.1 485 777
+ 0.823224 0 1 tcp 1250 ------- 0 0.1 1.1 486 779
+ 0.823224 0 1 tcp 1250 ------- 0 0.1 1.1 487 780
+ 0.824224 0 1 tcp 1250 ------- 0 0.1 1.1 488 782
+ 0.824224 0 1 tcp 1250 ------- 0 0.1 1.1 489 783
+ 0.825224 0 1 tcp 1250 ------- 0 0.1 1.1 490 785
+ 0.825224 0 1 tcp 1250 ------- 0 0.1 1.1 491 786
+ 0.826224 0 1 tcp 1250 ------- 0 0.1 1.1 492 788
+ 0.826224 0 1 tcp 1250 ------- 0 0.1 1.1 493 789
+ 0.827224 0 1 tcp 1250 ------- 0 0.1 1.1 494 791
+ 0.827224 0 1 tcp 1250 ------- 0 0.1 1.1 495 792
+ 0.828224 0 1 tcp 1250 ------- 0 0.1 1.1 496 794
+ 0.828224 0 1 tcp 1250 ------- 0 0.1 1.1 497 795
+ 0.829224 0 1 tcp 1250 ------- 0 0.1 1.1 498 797
+ 0.829224 0 1 tcp 1250 ------- 0 0.1 1.1 499 798
+ 0.830224 0 1 tcp 1250 ------- 0 0.1 1.1 500 800
+ 0.830224 0 1 tcp 1250 ------- 0 0.1 1.1 501 801
+ 0.831224 0 1 tcp 1250 ------- 0 0.1 1.1 502 803
+ 0.831224 0 1 tcp 1250 ------- 0 0.1 1.1 503 804
+ 0.832224 0 1 tcp 1250 ------- 0 0.1 1.1 504 806
+ 0.832224 0 1 tcp 1250 ------- 0 0.1 1.1 505 807
+ 0.833224 0 1 tcp 1250 ------- 0 0.1 1.1 506 809
+ 0.833224 0 1 tcp 1250 ------- 0 0.1 1.1 507 810
+ 0.834224 0 1 tcp 1250 ------- 0 0.1 1.1 508 812
+ 0.834224 0 1 tcp 1250 ------- 0 0.1 1.1 509 813
+ 0.835224 0 1 tcp 1250 ------- 0 0.1 1.1 510 815
+ 0.835224 0 1 tcp 1250 ------- 0 0.1 1.1 511 816
+ 0.836224 0 1 tcp 1250 ------- 0 0.1 1.1 512 818
+ 0.836224 0 1 tcp 1250 ------- 0 0.1 1.1 513 819
+ 0.837224 0 1 tcp 1250 ------- 0 0.1 1.1 514 821
+ 0.837224 0 1 tcp 1250 ------- 0 0.1 1.1 515 822
+ 0.838224 0 1 tcp 1250 ------- 0 0.1 1.1 516 824
+ 0.838224 0 1 tcp 1250 ------- 0 0.1 1.1 517 825
+ 0.839224 0 1 tcp 1250 ------- 0 0.1 1.1 518 827
+ 0.839224 0 1 tcp 1250 ------- 0 0.1 1.1 519 828
+ 0.840224 0 1 tcp 1250 ------- 0 0.1 1.1 520 830
+ 0.840224 0 1 tcp 1250 ------- 0 0.1 1.1 521 831
+ 0.841224 0 1 tcp 1250 ------- 0 0.1 1.1 522 833
+ 0.841224 0 1 tcp 1250 ------- 0 0.1 1.1 523 834
+ 0.842224 0 1 tcp 1250 ------- 0 0.1 1.1 524 836
+ 0.842224 0 1 tcp 1250 ------- 0 0.1 1.1 525 837
+ 0.843224 0 1 tcp 1250 ------- 0 0.1 1.1 526 839
+ 0.843224 0 1 tcp 1250 ------- 0 0.1 1.1 527 840
+ 0.844224 0 1 tcp 1250 ------- 0 0.1 1.1 528 842
+ 0.844224 0 1 tcp 1250 ------- 0 0.1 1.1 529 843
+ 0.845224 0 1 tcp 1250 ------- 0 0.1 1.1 530 845
+ 0.845224 0 1 tcp 1250 ------- 0 0.1 1.1 531 846
+ 0.846224 0 1 tcp 1250 ------- 0 0.1 1.1 532 848
+ 0.846224 0 1 tcp 1250 ------- 0 0.1 1.1 533 849
+ 0.847224 0 1 tcp 1250 ------- 0 0.1 1.1 534 851
+ 0.847224 0 1 tcp 1250 ------- 0 0.1 1.1 535 852
+ 0.848224 0 1 tcp 1250 ------- 0 0.1 1.1 536 854
+ 0.848224 0 1 tcp 1250 ------- 0 0.1 1.1 537 855
+ 0.849224 0 1 tcp 1250 ------- 0 0.1 1.1 538 857
+ 0.849224 0 1 tcp 1250 ------- 0 0.1 1.1 539 858
+ 0.850224 0 1 tcp 1250 ------- 0 0.1 1.1 540 860
+ 0.850224 0 1 tcp 1250 ------- 0 0.1 1.1 541 861
+ 0.851224 0 1 tcp 1250 ------- 0 0.1 1.1 542 863
+ 0.851224 0 1 tcp 1250 ------- 0 0.1 1.1 543 864
+ 0.852224 0 1 tcp 1250 ------- 0 0.1 1.1 544 866
+ 0.852224 0 1 tcp 1250 ------- 0 0.1 1.1 545 867
+ 0.853224 0 1 tcp 1250 ------- 0 0.1 1.1 546 869
+ 0.853224 0 1 tcp 1250 ------- 0 0.1 1.1 547 870
+ 0.854224 0 1 tcp 1250 ------- 0 0.1 1.1 548 872
+ 0.854224 0 1 tcp 1250 ------- 0 0.1 1.1 549 873
+ 0.855224 0 1 tcp 1250 ------- 0 0.1 1.1 550 875
+ 0.855224 0 1 tcp 1250 ------- 0 0.1 1.1 551 876
+ 0.856224 0 1 tcp 1250 ------- 0 0.1 1.1 552 878
+ 0.856224 0 1 tcp 1250 ------- 0 0.1 1.1 553 879
+ 0.857224 0 1 tcp 1250 ------- 0 0.1 1.1 554 881
+ 0.857224 0 1 tcp 1250 ------- 0 0.1 1.1 555 882
+ 0.858224 0 1 tcp 1250 ------- 0 0.1 1.1 556 884
+ 0.858224 0 1 tcp 1250 ------- 0 0.1 1.1 557 885
+ 0.859224 0 1 tcp 1250 ------- 0 0.1 1.1 558 887
+ 0.859224 0 1 tcp 1250 ------- 0 0.1 1.1 559 888
+ 0.860224 0 1 tcp 1250 ------- 0 0.1 1.1 560 890
+ 0.860224 0 1 tcp 1250 ------- 0 0.1 1.1 561 891
+ 0.861224 0 1 tcp 1250 ------- 0 0.1 1.1 562 893
+ 0.861224 0 1 tcp 1250 ------- 0 0.1 1.1 563 894
+ 0.862224 0 1 tcp 1250 ------- 0 0.1 1.1 564 896
+ 0.862224 0 1 tcp 1250 ------- 0 0.1 1.1 565 897
+ 0.863224 0 1 tcp 1250 ------- 0 0.1 1.1 566 899
+ 0.863224 0 1 tcp 1250 ------- 0 0.1 1.1 567 900
+ 0.864224 0 1 tcp 1250 ------- 0 0.1 1.1 568 902
+ 0.864224 0 1 tcp 1250 ------- 0 0.1 1.1 569 903
+ 0.865224 0 1 tcp 1250 ------- 0 0.1 1.1 570 905
+ 0.865224 0 1 tcp 1250 ------- 0 0.1 1.1 571 906
+ 0.866224 0 1 tcp 1250 ------- 0 0.1 1.1 572 908
+ 0.866224 0 1 tcp 1250 ------- 0 0.1 1.1 573 909
+ 0.867224 0 1 tcp 1250 ------- 0 0.1 1.1 574 911
+ 0.867224 0 1 tcp 1250 ------- 0 0.1 1.1 575 912
+ 0.868224 0 1 tcp 1250 ------- 0 0.1 1.1 576 914
+ 0.868224 0 1 tcp 1250 ------- 0 0.1 1.1 577 915
+ 0.869224 0 1 tcp 1250 ------- 0 0.1 1.1 578 917
+ 0.869224 0 1 tcp 1250 ------- 0 0.1 1.1 579 918
+ 0.870224 0 1 tcp 1250 ------- 0 0.1 1.1 580 920
+ 0.870224 0 1 tcp 1250 ------- 0 0.1 1.1 581 921
+ 0.871224 0 1 tcp 1250 ------- 0 0.1 1.1 582 923
+ 0.871224 0 1 tcp 1250 ------- 0 0.1 1.1 583 924
+ 0.872224 0 1 tcp 1250 ------- 0 0.1 1.1 584 926
+ 0.872224 0 1 tcp 1250 ------- 0 0.1 1.1 585 927
+ 0.873224 0 1 tcp 1250 ------- 0 0.1 1.1 586 929
+ 0.873224 0 1 tcp 1250 ------- 0 0.1 1.1 587 930
+ 0.874224 0 1 tcp 1250 ------- 0 0.1 1.1 588 932
+ 0.874224 0 1 tcp 1250 ------- 0 0.1 1.1 589 933
+ 0.875224 0 1 tcp 1250 ------- 0 0.1 1.1 590 935
+ 0.875224 0 1 tcp 1250 ------- 0 0.1 1.1 591 936
+ 0.876224 0 1 tcp 1250 ------- 0 0.1 1.1 592 938
+ 0.876224 0 1 tcp 1250 ------- 0 0.1 1.1 593 939
+ 0.877224 0 1 tcp 1250 ------- 0 0.1 1.1 594 941
+ 0.877224 0 1 tcp 1250 ------- 0 0.1 1.1 595 942
+ 0.878224 0 1 tcp 1250 ------- 0 0.1 1.1 596 944
+ 0.878224 0 1 tcp 1250 ------- 0 0.1 1.1 597 945
+ 0.879224 0 1 tcp 1250 ------- 0 0.1 1.1 598 947
+ 0.879224 0 1 tcp 1250 ------- 0 0.1 1.1 599 948
+ 0.880224 0 1 tcp 1250 ------- 0 0.1 1.1 600 950
+ 0.880224 0 1 tcp 1250 ------- 0 0.1 1.1 601 951
+ 0.881224 0 1 tcp 1250 ------- 0 0.1 1.1 602 953
+ 0.881224 0 1 tcp 1250 ------- 0 0.1 1.1 603 954
+ 0.882224 0 1 tcp 1250 ------- 0 0.1 1.1 604 956