d 0.879224 0 1 tcp 1250 ------- 0 0.1 1.1 599 948
d 0.880224 0 1 tcp 1250 ------- 0 0.1 1.1 601 951
d 0.881224 0 1 tcp 1250 ------- 0 0.1 1.1 603 954
d 0.882224 0 1 tcp 1250 ------- 0 0.1 1.1 605 957
d 0.883224 0 1 tcp 1250 ------- 0 0.1 1.1 607 960
d 0.884224 0 1 tcp 1250 ------- 0 0.1 1.1 609 963
d 0.885224 0 1 tcp 1250 ------- 0 0.1 1.1 611 966
d 0.886224 0 1 tcp 1250 ------- 0 0.1 1.1 613 969
d 0.887224 0 1 tcp 1250 ------- 0 0.1 1.1 615 972
d 0.888224 0 1 tcp 1250 ------- 0 0.1 1.1 617 975
d 0.889224 0 1 tcp 1250 ------- 0 0.1 1.1 619 978
d 0.890224 0 1 tcp 1250 ------- 0 0.1 1.1 621 981
d 0.891224 0 1 tcp 1250 ------- 0 0.1 1.1 623 984
d 0.892224 0 1 tcp 1250 ------- 0 0.1 1.1 625 987
d 0.893224 0 1 tcp 1250 ------- 0 0.1 1.1 627 990
d 0.894224 0 1 tcp 1250 ------- 0 0.1 1.1 629 993
d 0.895224 0 1 tcp 1250 ------- 0 0.1 1.1 631 996
d 0.896224 0 1 tcp 1250 ------- 0 0.1 1.1 633 999
d 0.897224 0 1 tcp 1250 ------- 0 0.1 1.1 635 1002
d 0.898224 0 1 tcp 1250 ------- 0 0.1 1.1 637 1005
d 0.899224 0 1 tcp 1250 ------- 0 0.1 1.1 639 1008
d 0.900224 0 1 tcp 1250 ------- 0 0.1 1.1 641 1011
d 0.901224 0 1 tcp 1250 ------- 0 0.1 1.1 643 1014
d 0.902224 0 1 tcp 1250 ------- 0 0.1 1.1 645 1017
d 0.903224 0 1 tcp 1250 ------- 0 0.1 1.1 647 1020
d 0.904224 0 1 tcp 1250 ------- 0 0.1 1.1 649 1023
d 0.905224 0 1 tcp 1250 ------- 0 0.1 1.1 651 1026
d 0.906224 0 1 tcp 1250 ------- 0 0.1 1.1 653 1029
d 0.907224 0 1 tcp 1250 ------- 0 0.1 1.1 655 1032
d 0.908224 0 1 tcp 1250 ------- 0 0.1 1.1 657 1035
d 0.909224 0 1 tcp 1250 ------- 0 0.1 1.1 659 1038
d 0.910224 0 1 tcp 1250 ------- 0 0.1 1.1 661 1041
d 0.911224 0 1 tcp 1250 ------- 0 0.1 1.1 663 1044
d 0.912224 0 1 tcp 1250 ------- 0 0.1 1.1 665 1047
d 0.913224 0 1 tcp 1250 ------- 0 0.1 1.1 667 1050
d 0.914224 0 1 tcp 1250 ------- 0 0.1 1.1 669 1053
d 0.915224 0 1 tcp 1250 ------- 0 0.1 1.1 671 1056
d 0.916224 0 1 tcp 1250 ------- 0 0.1 1.1 673 1059
d 0.917224 0 1 tcp 1250 ------- 0 0.1 1.1 675 1062
d 0.918224 0 1 tcp 1250 ------- 0 0.1 1.1 677 1065
d 0.919224 0 1 tcp 1250 ------- 0 0.1 1.1 679 1068
d 0.920224 0 1 tcp 1250 ------- 0 0.1 1.1 681 1071
d 0.921224 0 1 tcp 1250 ------- 0 0.1 1.1 683 1074
d 0.922224 0 1 tcp 1250 ------- 0 0.1 1.1 685 1077
d 0.923224 0 1 tcp 1250 ------- 0 0.1 1.1 687 1080
d 0.924224 0 1 tcp 1250 ------- 0 0.1 1.1 689 1083
d 0.925224 0 1 tcp 1250 ------- 0 0.1 1.1 691 1086
d 0.926224 0 1 tcp 1250 ------- 0 0.1 1.1 693 1089
d 0.927224 0 1 tcp 1250 ------- 0 0.1 1.1 695 1092
d 0.928224 0 1 tcp 1250 ------- 0 0.1 1.1 697 1095
d 0.929224 0 1 tcp 1250 ------- 0 0.1 1.1 699 1098
d 0.930224 0 1 tcp 1250 ------- 0 0.1 1.1 701 1101
d 0.931224 0 1 tcp 1250 ------- 0 0.1 1.1 703 1104
d 0.932224 0 1 tcp 1250 ------- 0 0.1 1.1 705 1107
d 0.933224 0 1 tcp 1250 ------- 0 0.1 1.1 707 1110
d 0.934224 0 1 tcp 1250 ------- 0 0.1 1.1 709 1113
d 0.935224 0 1 tcp 1250 ------- 0 0.1 1.1 711 1116
d 0.936224 0 1 tcp 1250 ------- 0 0.1 1.1 713 1119
d 0.937224 0 1 tcp 1250 ------- 0 0.1 1.1 715 1122
d 0.938224 0 1 tcp 1250 ------- 0 0.1 1.1 717 1125
d 0.939224 0 1 tcp 1250 ------- 0 0.1 1.1 719 1128
d 0.940224 0 1 tcp 1250 ------- 0 0.1 1.1 721 1131
d 0.941224 0 1 tcp 1250 ------- 0 0.1 1.1 723 1134
d 0.942224 0 1 tcp 1250 ------- 0 0.1 1.1 725 1137
d 0.943224 0 1 tcp 1250 ------- 0 0.1 1.1 727 1140
d 0.944224 0 1 tcp 1250 ------- 0 0.1 1.1 729 1143
d 0.945224 0 1 tcp 1250 ------- 0 0.1 1.1 731 1146
d 0.946224 0 1 tcp 1250 ------- 0 0.1 1.1 733 1149
d 0.947224 0 1 tcp 1250 ------- 0 0.1 1.1 735 1152
d 0.948224 0 1 tcp 1250 ------- 0 0.1 1.1 737 1155
d 0.949224 0 1 tcp 1250 ------- 0 0.1 1.1 739 1158
d 0.950224 0 1 tcp 1250 ------- 0 0.1 1.1 741 1161
d 0.951224 0 1 tcp 1250 ------- 0 0.1 1.1 743 1164
d 0.952224 0 1 tcp 1250 ------- 0 0.1 1.1 745 1167
d 0.953224 0 1 tcp 1250 ------- 0 0.1 1.1 747 1170
d 0.954224 0 1 tcp 1250 ------- 0 0.1 1.1 749 1173
d 0.955224 0 1 tcp 1250 ------- 0 0.1 1.1 751 1176
d 0.956224 0 1 tcp 1250 ------- 0 0.1 1.1 753 1179
d 0.957224 0 1 tcp 1250 ------- 0 0.1 1.1 755 1182
d 0.958224 0 1 tcp 1250 ------- 0 0.1 1.1 757 1185
d 0.959224 0 1 tcp 1250 ------- 0 0.1 1.1 759 1188
d 0.960224 0 1 tcp 1250 ------- 0 0.1 1.1 761 1191
d 0.961224 0 1 tcp 1250 ------- 0 0.1 1.1 763 1194
d 0.962224 0 1 tcp 1250 ------- 0 0.1 1.1 765 1197
d 0.963224 0 1 tcp 1250 ------- 0 0.1 1.1 767 1200
d 0.964224 0 1 tcp 1250 ------- 0 0.1 1.1 769 1203
d 0.965224 0 1 tcp 1250 ------- 0 0.1 1.1 771 1206
d 0.966224 0 1 tcp 1250 ------- 0 0.1 1.1 773 1209
d 0.967224 0 1 tcp 1250 ------- 0 0.1 1.1 775 1212
d 0.968224 0 1 tcp 1250 ------- 0 0.1 1.1 777 1215
d 0.969224 0 1 tcp 1250 ------- 0 0.1 1.1 779 1218
d 0.970224 0 1 tcp 1250 ------- 0 0.1 1.1 781 1221
d 0.971224 0 1 tcp 1250 ------- 0 0.1 1.1 783 1224
d 0.972224 0 1 tcp 1250 ------- 0 0.1 1.1 785 1227
d 0.973224 0 1 tcp 1250 ------- 0 0.1 1.1 787 1230
d 0.974224 0 1 tcp 1250 ------- 0 0.1 1.1 789 1233
d 0.975224 0 1 tcp 1250 ------- 0 0.1 1.1 791 1236
d 0.976224 0 1 tcp 1250 ------- 0 0.1 1.1 793 1239
d 0.977224 0 1 tcp 1250 ------- 0 0.1 1.1 795 1242
d 0.978224 0 1 tcp 1250 ------- 0 0.1 1.1 797 1245
d 0.979224 0 1 tcp 1250 ------- 0 0.1 1.1 799 1248
d 0.980224 0 1 tcp 1250 ------- 0 0.1 1.1 801 1251
d 0.981224 0 1 tcp 1250 ------- 0 0.1 1.1 803 1254
d 0.982224 0 1 tcp 1250 ------- 0 0.1 1.1 805 1257
d 0.983224 0 1 tcp 1250 ------- 0 0.1 1.1 807 1260
d 0.984224 0 1 tcp 1250 ------- 0 0.1 1.1 809 1263
d 0.985224 0 1 tcp 1250 ------- 0 0.1 1.1 811 1266
d 0.986224 0 1 tcp 1250 ------- 0 0.1 1.1 813 1269
d 0.987224 0 1 tcp 1250 ------- 0 0.1 1.1 815 1272
d 0.988224 0 1 tcp 1250 ------- 0 0.1 1.1 817 1275
d 0.989224 0 1 tcp 1250 ------- 0 0.1 1.1 819 1278
d 0.990224 0 1 tcp 1250 ------- 0 0.1 1.1 821 1281
d 0.991224 0 1 tcp 1250 ------- 0 0.1 1.1 823 1284
d 0.992224 0 1 tcp 1250 ------- 0 0.1 1.1 825 1287
d 0.993224 0 1 tcp 1250 ------- 0 0.1 1.1 827 1290
d 0.994224 0 1 tcp 1250 ------- 0 0.1 1.1 829 1293
d 0.995224 0 1 tcp 1250 ------- 0 0.1 1.1 831 1296
d 0.996224 0 1 tcp 1250 ------- 0 0.1 1.1 833 1299
d 0.997224 0 1 tcp 1250 ------- 0 0.1 1.1 835 1302
d 0.998224 0 1 tcp 1250 ------- 0 0.1 1.1 837 1305
d 0.999224 0 1 tcp 1250 ------- 0 0.1 1.1 839 1308
d 1.000224 0 1 tcp 1250 ------- 0 0.1 1.1 841 1311
d 1.001224 0 1 tcp 1250 ------- 0 0.1 1.1 843 1314
d 1.002224 0 1 tcp 1250 ------- 0 0.1 1.1 845 1317
d 1.003224 0 1 tcp 1250 ------- 0 0.1 1.1 847 1320
d 1.004224 0 1 tcp 1250 ------- 0 0.1 1.1 849 1323
d 1.005224 0 1 tcp 1250 ------- 0 0.1 1.1 851 1326
d 1.006224 0 1 tcp 1250 ------- 0 0.1 1.1 853 1329
d 1.007224 0 1 tcp 1250 ------- 0 0.1 1.1 855 1332
d 1.008224 0 1 tcp 1250 ------- 0 0.1 1.1 857 1335
d 1.009224 0 1 tcp 1250 ------- 0 0.1 1.1 859 1338
d 1.010224 0 1 tcp 1250 ------- 0 0.1 1.1 861 1341
d 1.011224 0 1 tcp 1250 ------- 0 0.1 1.1 863 1344
d 1.012224 0 1 tcp 1250 ------- 0 0.1 1.1 865 1347
d 1.013224 0 1 tcp 1250 ------- 0 0.1 1.1 867 1350
d 1.014224 0 1 tcp 1250 ------- 0 0.1 1.1 869 1353
d 1.015224 0 1 tcp 1250 ------- 0 0.1 1.1 871 1356
d 1.016224 0 1 tcp 1250 ------- 0 0.1 1.1 873 1359
d 1.017224 0 1 tcp 1250 ------- 0 0.1 1.1 875 1362
d 1.018224 0 1 tcp 1250 ------- 0 0.1 1.1 877 1365
d 1.019224 0 1 tcp 1250 ------- 0 0.1 1.1 879 1368
d 1.020224 0 1 tcp 1250 ------- 0 0.1 1.1 881 1371
d 1.021224 0 1 tcp 1250 ------- 0 0.1 1.1 883 1374
d 1.022224 0 1 tcp 1250 ------- 0 0.1 1.1 885 1377
d 1.023224 0 1 tcp 1250 ------- 0 0.1 1.1 887 1380
d 1.024224 0 1 tcp 1250 ------- 0 0.1 1.1 889 1383
d 1.025224 0 1 tcp 1250 ------- 0 0.1 1.1 891 1386
d 1.026224 0 1 tcp 1250 ------- 0 0.1 1.1 893 1389
d 1.027224 0 1 tcp 1250 ------- 0 0.1 1.1 895 1392
d 1.028224 0 1 tcp 1250 ------- 0 0.1 1.1 897 1395
d 1.029224 0 1 tcp 1250 ------- 0 0.1 1.1 899 1398
d 1.030224 0 1 tcp 1250 ------- 0 0.1 1.1 901 1401
d 1.031224 0 1 tcp 1250 ------- 0 0.1 1.1 903 1404
d 1.032224 0 1 tcp 1250 ------- 0 0.1 1.1 905 1407
d 1.033224 0 1 tcp 1250 ------- 0 0.1 1.1 907 1410
d 1.034224 0 1 tcp 1250 ------- 0 0.1 1.1 909 1413
d 1.035224 0 1 tcp 1250 ------- 0 0.1 1.1 911 1416
d 1.036224 0 1 tcp 1250 ------- 0 0.1 1.1 913 1419
d 1.037224 0 1 tcp 1250 ------- 0 0.1 1.1 915 1422
d 1.038224 0 1 tcp 1250 ------- 0 0.1 1.1 917 1425
d 1.039224 0 1 tcp 1250 ------- 0 0.1 1.1 919 1428
d 1.040224 0 1 tcp 1250 ------- 0 0.1 1.1 921 1431
d 1.041224 0 1 tcp 1250 ------- 0 0.1 1.1 923 1434
d 1.042224 0 1 tcp 1250 ------- 0 0.1 1.1 925 1437
d 1.043224 0 1 tcp 1250 ------- 0 0.1 1.1 927 1440
d 1.044224 0 1 tcp 1250 ------- 0 0.1 1.1 929 1443
d 1.045224 0 1 tcp 1250 ------- 0 0.1 1.1 931 1446
d 1.046224 0 1 tcp 1250 ------- 0 0.1 1.1 933 1449
d 1.047224 0 1 tcp 1250 ------- 0 0.1 1.1 935 1452
d 1.048224 0 1 tcp 1250 ------- 0 0.1 1.1 937 1455
d 1.049224 0 1 tcp 1250 ------- 0 0.1 1.1 939 1458
d 1.050224 0 1 tcp 1250 ------- 0 0.1 1.1 941 1461
d 1.051224 0 1 tcp 1250 ------- 0 0.1 1.1 943 1464
d 1.052224 0 1 tcp 1250 ------- 0 0.1 1.1 945 1467
d 1.053224 0 1 tcp 1250 ------- 0 0.1 1.1 947 1470
d 1.054224 0 1 tcp 1250 ------- 0 0.1 1.1 949 1473
d 1.055224 0 1 tcp 1250 ------- 0 0.1 1.1 951 1476
d 1.056224 0 1 tcp 1250 ------- 0 0.1 1.1 953 1479
d 1.057224 0 1 tcp 1250 ------- 0 0.1 1.1 955 1482
d 1.058224 0 1 tcp 1250 ------- 0 0.1 1.1 957 1485
d 1.059224 0 1 tcp 1250 ------- 0 0.1 1.1 959 1488
d 1.060224 0 1 tcp 1250 ------- 0 0.1 1.1 961 1491
d 1.061224 0 1 tcp 1250 ------- 0 0.1 1.1 963 1494
d 1.062224 0 1 tcp 1250 ------- 0 0.1 1.1 965 1497
d 1.063224 0 1 tcp 1250 ------- 0 0.1 1.1 967 1500
d 1.064224 0 1 tcp 1250 ------- 0 0.1 1.1 969 1503
d 1.065224 0 1 tcp 1250 ------- 0 0.1 1.1 971 1506
d 1.066224 0 1 tcp 1250 ------- 0 0.1 1.1 973 1509
d 1.067224 0 1 tcp 1250 ------- 0 0.1 1.1 975 1512
d 1.068224 0 1 tcp 1250 ------- 0 0.1 1.1 977 1515
d 1.069224 0 1 tcp 1250 ------- 0 0.1 1.1 979 1518
d 1.070224 0 1 tcp 1250 ------- 0 0.1 1.1 981 1521
d 1.071224 0 1 tcp 1250 ------- 0 0.1 1.1 983 1524
d 1.072224 0 1 tcp 1250 ------- 0 0.1 1.1 985 1527
d 1.073224 0 1 tcp 1250 ------- 0 0.1 1.1 987 1530
d 1.074224 0 1 tcp 1250 ------- 0 0.1 1.1 989 1533
d 1.075224 0 1 tcp 1250 ------- 0 0.1 1.1 991 1536
d 1.076224 0 1 tcp 1250 ------- 0 0.1 1.1 993 1539
d 1.077224 0 1 tcp 1250 ------- 0 0.1 1.1 995 1542
d 1.078224 0 1 tcp 1250 ------- 0 0.1 1.1 997 1545
d 1.079224 0 1 tcp 1250 ------- 0 0.1 1.1 999 1548
d 1.080224 0 1 tcp 1250 ------- 0 0.1 1.1 1001 1551
d 1.081224 0 1 tcp 1250 ------- 0 0.1 1.1 1003 1554
d 1.082224 0 1 tcp 1250 ------- 0 0.1 1.1 1005 1557
d 1.083224 0 1 tcp 1250 ------- 0 0.1 1.1 1007 1560
d 1.084224 0 1 tcp 1250 ------- 0 0.1 1.1 1009 1563
d 1.085224 0 1 tcp 1250 ------- 0 0.1 1.1 1011 1566
d 1.086224 0 1 tcp 1250 ------- 0 0.1 1.1 1013 1569
d 1.087224 0 1 tcp 1250 ------- 0 0.1 1.1 1015 1572
d 1.088224 0 1 tcp 1250 ------- 0 0.1 1.1 1017 1575
d 1.089224 0 1 tcp 1250 ------- 0 0.1 1.1 1019 1578
d 1.090224 0 1 tcp 1250 ------- 0 0.1 1.1 1021 1581
d 1.091224 0 1 tcp 1250 ------- 0 0.1 1.1 1023 1584
d 1.092224 0 1 tcp 1250 ------- 0 0.1 1.1 1025 1587
d 1.093224 0 1 tcp 1250 ------- 0 0.1 1.1 1027 1590
d 1.094224 0 1 tcp 1250 ------- 0 0.1 1.1 1029 1593
d 1.095224 0 1 tcp 1250 ------- 0 0.1 1.1 1031 1596
d 1.096224 0 1 tcp 1250 ------- 0 0.1 1.1 1033 1599
d 1.097224 0 1 tcp 1250 ------- 0 0.1 1.1 1035 1602
d 1.098224 0 1 tcp 1250 ------- 0 0.1 1.1 1037 1605
d 1.099224 0 1 tcp 1250 ------- 0 0.1 1.1 1039 1608
d 1.100224 0 1 tcp 1250 ------- 0 0.1 1.1 1041 1611
d 1.101224 0 1 tcp 1250 ------- 0 0.1 1.1 1043 1614
d 1.102224 0 1 tcp 1250 ------- 0 0.1 1.1 1045 1617
d 1.103224 0 1 tcp 1250 ------- 0 0.1 1.1 1047 1620
d 1.104224 0 1 tcp 1250 ------- 0 0.1 1.1 1049 1623
d 1.105224 0 1 tcp 1250 ------- 0 0.1 1.1 1051 1626
d 1.106224 0 1 tcp 1250 ------- 0 0.1 1.1 1053 1629
d 1.107224 0 1 tcp 1250 ------- 0 0.1 1.1 1055 1632
d 1.108224 0 1 tcp 1250 ------- 0 0.1 1.1 1057 1635
d 1.109224 0 1 tcp 1250 ------- 0 0.1 1.1 1059 1638
d 1.110224 0 1 tcp 1250 ------- 0 0.1 1.1 1061 1641
d 1.111224 0 1 tcp 1250 ------- 0 0.1 1.1 1063 1644
d 1.112224 0 1 tcp 1250 ------- 0 0.1 1.1 1065 1647
d 1.113224 0 1 tcp 1250 ------- 0 0.1 1.1 1067 1650
d 1.114224 0 1 tcp 1250 ------- 0 0.1 1.1 1069 1653
d 1.115224 0 1 tcp 1250 ------- 0 0.1 1.1 1071 1656
d 1.116224 0 1 tcp 1250 ------- 0 0.1 1.1 1073 1659
d 1.117224 0 1 tcp 1250 ------- 0 0.1 1.1 1075 1662
d 1.118224 0 1 tcp 1250 ------- 0 0.1 1.1 1077 1665
d 1.119224 0 1 tcp 1250 ------- 0 0.1 1.1 1079 1668
d 1.120224 0 1 tcp 1250 ------- 0 0.1 1.1 1081 1671
d 1.121224 0 1 tcp 1250 ------- 0 0.1 1.1 1083 1674
d 1.122224 0 1 tcp 1250 ------- 0 0.1 1.1 1085 1677
d 1.123224 0 1 tcp 1250 ------- 0 0.1 1.1 1087 1680
d 1.124224 0 1 tcp 1250 ------- 0 0.1 1.1 1089 1683
d 1.125224 0 1 tcp 1250 ------- 0 0.1 1.1 1091 1686
d 1.126224 0 1 tcp 1250 ------- 0 0.1 1.1 1093 1689
d 1.127224 0 1 tcp 1250 ------- 0 0.1 1.1 1095 1692
d 1.128224 0 1 tcp 1250 ------- 0 0.1 1.1 1097 1695
d 1.129224 0 1 tcp 1250 ------- 0 0.1 1.1 1099 1698
d 1.130224 0 1 tcp 1250 ------- 0 0.1 1.1 1101 1701
d 1.131224 0 1 tcp 1250 ------- 0 0.1 1.1 1103 1704
d 1.132224 0 1 tcp 1250 ------- 0 0.1 1.1 1105 1707
d 1.133224 0 1 tcp 1250 ------- 0 0.1 1.1 1107 1710
d 1.134224 0 1 tcp 1250 ------- 0 0.1 1.1 1109 1713
d 1.135224 0 1 tcp 1250 ------- 0 0.1 1.1 1111 1716
d 1.136224 0 1 tcp 1250 ------- 0 0.1 1.1 1113 1719
d 1.137224 0 1 tcp 1250 ------- 0 0.1 1.1 1115 1722
d 1.138224 0 1 tcp 1250 ------- 0 0.1 1.1 1117 1725
d 1.139224 0 1 tcp 1250 ------- 0 0.1 1.1 1119 1728
d 1.140224 0 1 tcp 1250 ------- 0 0.1 1.1 1121 1731
d 1.141224 0 1 tcp 1250 ------- 0 0.1 1.1 1123 1734
d 1.142224 0 1 tcp 1250 ------- 0 0.1 1.1 1125 1737
d 1.143224 0 1 tcp 1250 ------- 0 0.1 1.1 1127 1740
d 1.144224 0 1 tcp 1250 ------- 0 0.1 1.1 1129 1743
d 1.145224 0 1 tcp 1250 ------- 0 0.1 1.1 1131 1746
d 1.146224 0 1 tcp 1250 ------- 0 0.1 1.1 1133 1749
d 1.147224 0 1 tcp 1250 ------- 0 0.1 1.1 1135 1752
d 1.148224 0 1 tcp 1250 ------- 0 0.1 1.1 1137 1755
d 1.149224 0 1 tcp 1250 ------- 0 0.1 1.1 1139 1758
d 1.150224 0 1 tcp 1250 ------- 0 0.1 1.1 1141 1761
d 1.151224 0 1 tcp 1250 ------- 0 0.1 1.1 1143 1764
d 1.152224 0 1 tcp 1250 ------- 0 0.1 1.1 1145 1767
d 1.153224 0 1 tcp 1250 ------- 0 0.1 1.1 1147 1770
d 1.154224 0 1 tcp 1250 ------- 0 0.1 1.1 1149 1773
d 1.155224 0 1 tcp 1250 ------- 0 0.1 1.1 1151 1776
d 1.156224 0 1 tcp 1250 ------- 0 0.1 1.1 1153 1779
d 1.157224 0 1 tcp 1250 ------- 0 0.1 1.1 1155 1782
d 1.158224 0 1 tcp 1250 ------- 0 0.1 1.1 1157 1785
d 1.159224 0 1 tcp 1250 ------- 0 0.1 1.1 1159 1788
d 1.160224 0 1 tcp 1250 ------- 0 0.1 1.1 1161 1791
d 1.161224 0 1 tcp 1250 ------- 0 0.1 1.1 1163 1794
d 1.162224 0 1 tcp 1250 ------- 0 0.1 1.1 1165 1797
d 1.163224 0 1 tcp 1250 ------- 0 0.1 1.1 1167 1800
d 1.164224 0 1 tcp 1250 ------- 0 0.1 1.1 1169 1803
d 1.165224 0 1 tcp 1250 ------- 0 0.1 1.1 1171 1806
d 1.166224 0 1 tcp 1250 ------- 0 0.1 1.1 1173 1809
d 1.167224 0 1 tcp 1250 ------- 0 0.1 1.1 1175 1812
d 1.168224 0 1 tcp 1250 ------- 0 0.1 1.1 1177 1815
d 1.169224 0 1 tcp 1250 ------- 0 0.1 1.1 1179 1818
d 1.170224 0 1 tcp 1250 ------- 0 0.1 1.1 1181 1821
d 1.171224 0 1 tcp 1250 ------- 0 0.1 1.1 1183 1824
d 1.172224 0 1 tcp 1250 ------- 0 0.1 1.1 1185 1827
d 1.173224 0 1 tcp 1250 ------- 0 0.1 1.1 1187 1830
d 1.174224 0 1 tcp 1250 ------- 0 0.1 1.1 1189 1833
d 1.175224 0 1 tcp 1250 ------- 0 0.1 1.1 1191 1836
d 1.176224 0 1 tcp 1250 ------- 0 0.1 1.1 1193 1839
d 1.177224 0 1 tcp 1250 ------- 0 0.1 1.1 1195 1842
d 1.178224 0 1 tcp 1250 ------- 0 0.1 1.1 1197 1845
d 1.179224 0 1 tcp 1250 ------- 0 0.1 1.1 1199 1848
